 Gaussian 16, Revision B.01,
 Gaussian 16:  EM64L-G16RevB.01 20-Dec-2017

 --------------------------------
 # opt b3lyp/6-311+g(d,p) scf=xqc
 --------------------------------

 -------------------
 Title Card Required
 -------------------
 Symbolic Z-matrix:
 Charge =  0 Multiplicity = 1

 SCF Done:  E(RB3LYP) =  -2760.94508411     A.U. after   28 cycles
 SCF Done:  E(RB3LYP) =  -2761.03846054     A.U. after   21 cycles
 SCF Done:  E(RB3LYP) =  -2761.19495943     A.U. after   19 cycles
 SCF Done:  E(RB3LYP) =  -2761.09311883     A.U. after   19 cycles
 SCF Done:  E(RB3LYP) =  -2761.27730330     A.U. after   17 cycles
 SCF Done:  E(RB3LYP) =  -2761.29759734     A.U. after   17 cycles
 SCF Done:  E(RB3LYP) =  -2761.36414521     A.U. after   16 cycles
 SCF Done:  E(RB3LYP) =  -2761.20824736     A.U. after   18 cycles
 SCF Done:  E(RB3LYP) =  -2761.38075414     A.U. after   15 cycles
 SCF Done:  E(RB3LYP) =  -2761.39196881     A.U. after   13 cycles
 SCF Done:  E(RB3LYP) =  -2761.51393205     A.U. after   12 cycles
 SCF Done:  E(RB3LYP) =  -2761.51398318     A.U. after   13 cycles
 SCF Done:  E(RB3LYP) =  -2761.51404122     A.U. after   13 cycles
 SCF Done:  E(RB3LYP) =  -2761.51406801     A.U. after   12 cycles
 SCF Done:  E(RB3LYP) =  -2761.51412184     A.U. after   13 cycles
 SCF Done:  E(RB3LYP) =  -2761.51413893     A.U. after   13 cycles
 SCF Done:  E(RB3LYP) =  -2761.51414779     A.U. after   12 cycles
 SCF Done:  E(RB3LYP) =  -2761.51415025     A.U. after   12 cycles
 SCF Done:  E(RB3LYP) =  -2761.51415117     A.U. after   12 cycles
 SCF Done:  E(RB3LYP) =  -2761.51415143     A.U. after   11 cycles
 Optimization completed.
    -- Stationary point found.

                         Standard orientation:
 ---------------------------------------------------------------------
 Center     Atomic      Atomic             Coordinates (Angstroms)
 Number     Number       Type             X           Y           Z
 ---------------------------------------------------------------------
      1          6           0       -0.700099    0.164972    0.684317
      2          6           0       -1.668592   -0.160463   -0.275567
      3          6           0       -2.980718   -0.438974    0.123522
      4          6           0       -3.328473   -0.393815    1.470935
      5          6           0       -2.369270   -0.070948    2.423360
      6          6           0       -1.064726    0.206429    2.031102
      7          6           0        0.707774    0.474217    0.294264
      8          6           0        1.679558   -0.539662    0.226083
      9          6           0        3.002422   -0.241415   -0.116706
     10          6           0        3.368217    1.072477   -0.393589
     11          6           0        2.425483    2.087839   -0.331442
     12          6           0        1.112154    1.783600    0.010251
     13          1           0       -4.348625   -0.612441    1.758994
     14          1           0       -2.642175   -0.036235    3.471108
     15          1           0       -0.313516    0.458625    2.769762
     16          1           0        4.394093    1.293112   -0.658261
     17          1           0        2.704880    3.110480   -0.546956
     18         17           0        1.212835   -2.184857    0.568855
     19         17           0       -1.222601   -0.214866   -1.962005
     20         17           0        4.224684   -1.484999   -0.205745
     21         17           0       -4.215241   -0.848119   -1.043898
     22         17           0       -0.052444    3.092896    0.073743
 ---------------------------------------------------------------------

 The electronic state is 1-A.
 Alpha  occ. eigenvalues -- -101.57269-101.57255-101.57070-101.56771-101.56696
 Alpha  occ. eigenvalues --  -10.27276 -10.26721 -10.26614 -10.26408 -10.26155
 Alpha  occ. eigenvalues --  -10.23461 -10.22506 -10.21702 -10.21391 -10.20772
 Alpha  occ. eigenvalues --  -10.20469 -10.20350  -9.48745  -9.48713  -9.48541
 Alpha  occ. eigenvalues --   -9.48247  -9.48157  -7.25231  -7.25198  -7.25012
 Alpha  occ. eigenvalues --   -7.24726  -7.24638  -7.24229  -7.24192  -7.24153
 Alpha  occ. eigenvalues --   -7.24135  -7.24022  -7.23972  -7.23730  -7.23665
 Alpha  occ. eigenvalues --   -7.23639  -7.23581  -0.94838  -0.92964  -0.90258
 Alpha  occ. eigenvalues --   -0.88094  -0.87043  -0.85786  -0.84082  -0.80171
 Alpha  occ. eigenvalues --   -0.75615  -0.75055  -0.74154  -0.66959  -0.62839
 Alpha  occ. eigenvalues --   -0.62520  -0.61378  -0.54782  -0.53064  -0.52806
 Alpha  occ. eigenvalues --   -0.51322  -0.49360  -0.47626  -0.46213  -0.45907
 Alpha  occ. eigenvalues --   -0.45540  -0.44303  -0.43337  -0.42158  -0.40996
 Alpha  occ. eigenvalues --   -0.39745  -0.39274  -0.38987  -0.36528  -0.35812
 Alpha  occ. eigenvalues --   -0.35123  -0.34673  -0.33964  -0.33268  -0.33201
 Alpha  occ. eigenvalues --   -0.32369  -0.31911  -0.28147  -0.27492  -0.26443
 Alpha  occ. eigenvalues --   -0.26212
 Alpha virt. eigenvalues --   -0.05435  -0.05218  -0.04736  -0.03964  -0.03085
 Alpha virt. eigenvalues --   -0.01553  -0.00460   0.00241   0.00887   0.02026
 Alpha virt. eigenvalues --    0.02480   0.02603   0.02720   0.03097   0.04416

 Mulliken charges:
               1
     1  C   -0.212494
     2  C   -1.730386
     3  C    0.996264
     4  C   -0.482058
     5  C   -0.560744
     6  C   -0.312329
     7  C    0.295079
     8  C   -1.307953
     9  C    1.138731
    10  C   -0.557408
    11  C   -0.461574
    12  C   -0.031974
    13  H    0.154054
    14  H    0.139182
    15  H    0.130761
    16  H    0.158780
    17  H    0.155864
    18  Cl   0.571067
    19  Cl   0.534040
    20  Cl   0.474913
    21  Cl   0.464464
    22  Cl   0.443721
 Sum of Mulliken charges =  -0.00000

 Dipole moment (field-independent basis, Debye):
    X=              0.7818    Y=              1.4471    Z=              2.0647  Tot=              2.6398
 Quadrupole moment (field-independent basis, Debye-Ang):
   XX=           -126.3307   YY=           -133.5787   ZZ=           -127.2540
   XY=              6.9683   XZ=             -8.1789   YZ=             -1.2463

 Normal termination of Gaussian 16 at Sun Apr  3 03:04:07 2022.
