 Gaussian 16, Revision B.01,
 Gaussian 16:  EM64L-G16RevB.01 20-Dec-2017

 --------------------------------
 # opt b3lyp/6-311+g(d,p) scf=xqc
 --------------------------------

 -------------------
 Title Card Required
 -------------------
 Symbolic Z-matrix:
 Charge =  0 Multiplicity = 1

 SCF Done:  E(RB3LYP) =  -3680.19102157     A.U. after   28 cycles
 SCF Done:  E(RB3LYP) =  -3677.62892510     A.U. after   33 cycles
 SCF Done:  E(RB3LYP) =  -3677.62892510     a.u. after    1 cycles
 SCF Done:  E(RB3LYP) =  -3680.22201353     A.U. after   24 cycles
 SCF Done:  E(RB3LYP) =  -3680.28513352     A.U. after   19 cycles
 SCF Done:  E(RB3LYP) =  -3680.30437053     A.U. after   19 cycles
 SCF Done:  E(RB3LYP) =  -3680.33204068     A.U. after   19 cycles
 SCF Done:  E(RB3LYP) =  -3680.33970583     A.U. after   19 cycles
 SCF Done:  E(RB3LYP) =  -3680.37035130     A.U. after   19 cycles
 SCF Done:  E(RB3LYP) =  -3680.41665479     A.U. after   19 cycles
 SCF Done:  E(RB3LYP) =  -3680.74313006     A.U. after   12 cycles
 SCF Done:  E(RB3LYP) =  -3680.74313624     A.U. after   12 cycles
 SCF Done:  E(RB3LYP) =  -3680.74314316     A.U. after   13 cycles
 SCF Done:  E(RB3LYP) =  -3680.74315082     A.U. after   12 cycles
 SCF Done:  E(RB3LYP) =  -3680.74316295     A.U. after   13 cycles
 SCF Done:  E(RB3LYP) =  -3680.74317568     A.U. after   12 cycles
 SCF Done:  E(RB3LYP) =  -3680.74319801     A.U. after   12 cycles
 SCF Done:  E(RB3LYP) =  -3680.74320225     A.U. after   12 cycles
 SCF Done:  E(RB3LYP) =  -3680.74320321     A.U. after   10 cycles
 SCF Done:  E(RB3LYP) =  -3680.74320342     A.U. after    9 cycles
 Optimization completed.
    -- Stationary point found.

                         Standard orientation:
 ---------------------------------------------------------------------
 Center     Atomic      Atomic             Coordinates (Angstroms)
 Number     Number       Type             X           Y           Z
 ---------------------------------------------------------------------
      1          6           0       -0.991116    0.220806    0.520607
      2          6           0       -1.534067    0.357242    1.799262
      3          6           0       -2.906946    0.387959    1.996701
      4          6           0       -3.765760    0.284054    0.907837
      5          6           0       -3.254926    0.149967   -0.389742
      6          6           0       -1.862734    0.120884   -0.570991
      7          6           0        0.492023    0.213786    0.347169
      8          6           0        1.170266    1.426901    0.260388
      9          6           0        2.551660    1.468963    0.121773
     10          6           0        3.293930    0.284535    0.068102
     11          6           0        2.623341   -0.946801    0.159002
     12          6           0        1.228777   -0.975786    0.298941
     13          1           0       -0.867838    0.432623    2.650007
     14          1           0       -3.320938    0.490781    2.990941
     15          1           0        0.614054    2.354331    0.292818
     16         17           0        0.391231   -2.499689    0.418781
     17         17           0       -1.197825   -0.038269   -2.176030
     18         17           0        3.525833   -2.428970    0.101753
     19         17           0       -4.326469    0.027685   -1.750608
     20         17           0        5.019700    0.335807   -0.104932
     21         17           0       -5.486010    0.326699    1.197301
     22         17           0        3.326954    3.027749    0.016790
 ---------------------------------------------------------------------

 The electronic state is 1-A.
 Alpha  occ. eigenvalues -- -101.58180-101.58139-101.58022-101.57952-101.57840
 Alpha  occ. eigenvalues -- -101.57805-101.57759 -10.28411 -10.28328 -10.27903
 Alpha  occ. eigenvalues --  -10.27871 -10.27795 -10.27727 -10.27502 -10.23906
 Alpha  occ. eigenvalues --  -10.23486 -10.22413 -10.21892 -10.21825  -9.49644
 Alpha  occ. eigenvalues --   -9.49606  -9.49478  -9.49426  -9.49305  -9.49281
 Alpha  occ. eigenvalues --   -9.49217  -7.26148  -7.26110  -7.25970  -7.25916
 Alpha  occ. eigenvalues --   -7.25806  -7.25767  -7.25704  -7.25125  -7.25087
 Alpha  occ. eigenvalues --   -7.25038  -7.24999  -7.24955  -7.24907  -7.24896
 Alpha  occ. eigenvalues --   -7.24835  -7.24787  -7.24764  -7.24702  -7.24698
 Alpha  occ. eigenvalues --   -7.24691  -7.24635  -0.96553  -0.95325  -0.91916
 Alpha  occ. eigenvalues --   -0.90709  -0.89729  -0.88026  -0.86998  -0.85949
 Alpha  occ. eigenvalues --   -0.84844  -0.79373  -0.76512  -0.75766  -0.74244
 Alpha  occ. eigenvalues --   -0.66390  -0.64434  -0.64125  -0.61695  -0.55562
 Alpha  occ. eigenvalues --   -0.54929  -0.53645  -0.52754  -0.49941  -0.48715
 Alpha  occ. eigenvalues --   -0.47210  -0.47098  -0.46931  -0.46335  -0.45411
 Alpha  occ. eigenvalues --   -0.44232  -0.42665  -0.41723  -0.41157  -0.40423
 Alpha  occ. eigenvalues --   -0.38858  -0.38163  -0.36712  -0.35877  -0.35726
 Alpha  occ. eigenvalues --   -0.35504  -0.35226  -0.34727  -0.34359  -0.33740
 Alpha  occ. eigenvalues --   -0.33684  -0.32082  -0.31961  -0.27988  -0.27672
 Alpha  occ. eigenvalues --   -0.27548  -0.26987
 Alpha virt. eigenvalues --   -0.06630  -0.06286  -0.05696  -0.05215  -0.05051
 Alpha virt. eigenvalues --   -0.03893  -0.01086  -0.00397   0.00587   0.01462
 Alpha virt. eigenvalues --    0.01539   0.01983   0.02053   0.02253   0.02494

 Mulliken charges:
               1
     1  C    0.260571
     2  C   -0.441181
     3  C   -0.969913
     4  C    0.243609
     5  C    0.387880
     6  C   -1.357285
     7  C   -0.232075
     8  C   -0.786288
     9  C   -0.502473
    10  C   -0.187499
    11  C    0.004110
    12  C   -0.805809
    13  H    0.135656
    14  H    0.159755
    15  H    0.151413
    16  Cl   0.550659
    17  Cl   0.517393
    18  Cl   0.610764
    19  Cl   0.580287
    20  Cl   0.621647
    21  Cl   0.502638
    22  Cl   0.556140
 Sum of Mulliken charges =  -0.00000

 Dipole moment (field-independent basis, Debye):
    X=             -0.3067    Y=              0.9180    Z=              1.9717  Tot=              2.1964
 Quadrupole moment (field-independent basis, Debye-Ang):
   XX=           -165.3383   YY=           -157.5646   ZZ=           -152.1411
   XY=             -0.8158   XZ=             -3.7278   YZ=              1.4321

 Normal termination of Gaussian 16 at Mon Apr 18 19:35:29 2022.
