 Gaussian 16, Revision B.01,
 Gaussian 16:  EM64L-G16RevB.01 20-Dec-2017

 --------------------------------
 # opt b3lyp/6-311+g(d,p) scf=xqc
 --------------------------------

 -------------------
 Title Card Required
 -------------------
 Symbolic Z-matrix:
 Charge =  0 Multiplicity = 1

 SCF Done:  E(RB3LYP) =  -3220.56269449     A.U. after   27 cycles
 SCF Done:  E(RB3LYP) =  -3220.65536111     A.U. after   20 cycles
 SCF Done:  E(RB3LYP) =  -3220.79847552     A.U. after   19 cycles
 SCF Done:  E(RB3LYP) =  -3219.85439357     A.U. after   22 cycles
 SCF Done:  E(RB3LYP) =  -3220.88429342     A.U. after   18 cycles
 SCF Done:  E(RB3LYP) =  -3220.95420036     A.U. after   15 cycles
 SCF Done:  E(RB3LYP) =  -3219.72583096     A.U. after   20 cycles
 SCF Done:  E(RB3LYP) =  -3221.00990676     A.U. after   17 cycles
 SCF Done:  E(RB3LYP) =  -3221.01611907     A.U. after   13 cycles
 SCF Done:  E(RB3LYP) =  -3221.03045390     A.U. after   14 cycles
 SCF Done:  E(RB3LYP) =  -3221.13027331     A.U. after   10 cycles
 SCF Done:  E(RB3LYP) =  -3221.13027373     A.U. after   10 cycles
 SCF Done:  E(RB3LYP) =  -3221.13027422     A.U. after   11 cycles
 SCF Done:  E(RB3LYP) =  -3221.13027485     A.U. after   11 cycles
 SCF Done:  E(RB3LYP) =  -3221.13027548     A.U. after   11 cycles
 SCF Done:  E(RB3LYP) =  -3221.13027615     A.U. after   11 cycles
 SCF Done:  E(RB3LYP) =  -3221.13027678     A.U. after   12 cycles
 SCF Done:  E(RB3LYP) =  -3221.13027719     A.U. after   11 cycles
 SCF Done:  E(RB3LYP) =  -3221.13027741     A.U. after   10 cycles
 SCF Done:  E(RB3LYP) =  -3221.13027748     A.U. after   10 cycles
 Optimization completed.
    -- Stationary point found.

                         Standard orientation:
 ---------------------------------------------------------------------
 Center     Atomic      Atomic             Coordinates (Angstroms)
 Number     Number       Type             X           Y           Z
 ---------------------------------------------------------------------
      1          6           0        1.158389    0.451789    0.303190
      2          6           0        1.660283    1.755054    0.211222
      3          6           0        3.019179    2.007848    0.058208
      4          6           0        3.908979    0.945754   -0.004445
      5          6           0        3.445923   -0.363642    0.085219
      6          6           0        2.077653   -0.610125    0.238906
      7          6           0       -0.299563    0.195205    0.493287
      8          6           0       -0.824846    0.123931    1.783852
      9          6           0       -2.175526   -0.107016    1.995689
     10          6           0       -3.028673   -0.270946    0.909339
     11          6           0       -2.534235   -0.204872   -0.399192
     12          6           0       -1.163795    0.029525   -0.594596
     13          1           0        3.374967    3.027065   -0.011728
     14          1           0        4.969320    1.126369   -0.123701
     15          1           0       -0.162536    0.251453    2.631291
     16          1           0       -2.577407   -0.161531    2.998640
     17         17           0       -0.516918    0.116642   -2.212072
     18         17           0        1.488819   -2.248110    0.347854
     19         17           0       -3.598736   -0.408534   -1.756438
     20         17           0        4.604214   -1.666870    0.004125
     21         17           0       -4.722338   -0.559667    1.217694
     22         17           0        0.564551    3.121929    0.282452
 ---------------------------------------------------------------------

 The electronic state is 1-A.
 Alpha  occ. eigenvalues -- -101.57599-101.57514-101.57401-101.57399-101.57351
 Alpha  occ. eigenvalues -- -101.57339 -10.27607 -10.27367 -10.27283 -10.27025
 Alpha  occ. eigenvalues --  -10.27021 -10.26948 -10.23833 -10.23014 -10.22006
 Alpha  occ. eigenvalues --  -10.21694 -10.21369 -10.21308  -9.49073  -9.48972
 Alpha  occ. eigenvalues --   -9.48868  -9.48866  -9.48829  -9.48798  -7.25559
 Alpha  occ. eigenvalues --   -7.25459  -7.25366  -7.25340  -7.25313  -7.25284
 Alpha  occ. eigenvalues --   -7.24557  -7.24482  -7.24451  -7.24394  -7.24349
 Alpha  occ. eigenvalues --   -7.24348  -7.24310  -7.24300  -7.24279  -7.24265
 Alpha  occ. eigenvalues --   -7.24241  -7.24217  -0.95505  -0.94303  -0.90724
 Alpha  occ. eigenvalues --   -0.89828  -0.88358  -0.87290  -0.85229  -0.84382
 Alpha  occ. eigenvalues --   -0.80042  -0.76033  -0.75309  -0.74235  -0.66632
 Alpha  occ. eigenvalues --   -0.63956  -0.63046  -0.61556  -0.55229  -0.53398
 Alpha  occ. eigenvalues --   -0.53225  -0.52668  -0.49558  -0.48196  -0.46629
 Alpha  occ. eigenvalues --   -0.46472  -0.46392  -0.44882  -0.44738  -0.43032
 Alpha  occ. eigenvalues --   -0.41496  -0.41069  -0.40409  -0.39492  -0.38290
 Alpha  occ. eigenvalues --   -0.36724  -0.36263  -0.35119  -0.34834  -0.34303
 Alpha  occ. eigenvalues --   -0.33899  -0.33525  -0.33463  -0.32573  -0.31729
 Alpha  occ. eigenvalues --   -0.28495  -0.27194  -0.26989  -0.26540
 Alpha virt. eigenvalues --   -0.05804  -0.05659  -0.05393  -0.04714  -0.03898
 Alpha virt. eigenvalues --   -0.02781  -0.00689  -0.00021   0.00856   0.01458
 Alpha virt. eigenvalues --    0.02008   0.02444   0.02475   0.02605   0.03192

 Mulliken charges:
               1
     1  C   -0.047564
     2  C   -0.127455
     3  C   -0.330616
     4  C   -0.567036
     5  C    1.171273
     6  C   -1.415080
     7  C    0.021581
     8  C   -0.418103
     9  C   -1.067342
    10  C    0.300213
    11  C    0.418217
    12  C   -1.542358
    13  H    0.156757
    14  H    0.159368
    15  H    0.135636
    16  H    0.158048
    17  Cl   0.485519
    18  Cl   0.533835
    19  Cl   0.598880
    20  Cl   0.475726
    21  Cl   0.503424
    22  Cl   0.397077
 Sum of Mulliken charges =  -0.00000

 Dipole moment (field-independent basis, Debye):
    X=              1.9459    Y=              1.3920    Z=              1.7554  Tot=              2.9674
 Quadrupole moment (field-independent basis, Debye-Ang):
   XX=           -141.8765   YY=           -145.5138   ZZ=           -140.7518
   XY=              6.9486   XZ=             -2.8493   YZ=             -0.1025

 Normal termination of Gaussian 16 at Sun Apr  3 04:07:26 2022.
