 Gaussian 16, Revision B.01,
 Gaussian 16:  EM64L-G16RevB.01 20-Dec-2017

 --------------------------------
 # opt b3lyp/6-311+g(d,p) scf=xqc
 --------------------------------

 -------------------
 Title Card Required
 -------------------
 Symbolic Z-matrix:
 Charge =  0 Multiplicity = 1

 SCF Done:  E(RB3LYP) =  -3219.51479908     A.U. after   20 cycles
 SCF Done:  E(RB3LYP) =  -3220.02465914     A.U. after   16 cycles
 SCF Done:  E(RB3LYP) =  -3220.55963308     A.U. after   18 cycles
 SCF Done:  E(RB3LYP) =  -3220.82892773     A.U. after   20 cycles
 SCF Done:  E(RB3LYP) =  -3220.84140992     A.U. after   23 cycles
 SCF Done:  E(RB3LYP) =  -3220.87009372     A.U. after   19 cycles
 SCF Done:  E(RB3LYP) =  -3220.87850149     A.U. after   18 cycles
 SCF Done:  E(RB3LYP) =  -3220.88448418     A.U. after   19 cycles
 SCF Done:  E(RB3LYP) =  -3220.89212786     A.U. after   19 cycles
 SCF Done:  E(RB3LYP) =  -3220.90297665     A.U. after   19 cycles
 SCF Done:  E(RB3LYP) =  -3221.13146125     A.U. after   16 cycles
 SCF Done:  E(RB3LYP) =  -3221.13149293     A.U. after   14 cycles
 SCF Done:  E(RB3LYP) =  -3221.13141279     A.U. after   11 cycles
 SCF Done:  E(RB3LYP) =  -3221.13140976     A.U. after   13 cycles
 SCF Done:  E(RB3LYP) =  -3221.13148344     A.U. after   14 cycles
 SCF Done:  E(RB3LYP) =  -3221.13149239     A.U. after   14 cycles
 SCF Done:  E(RB3LYP) =  -3221.13149290     A.U. after   12 cycles
 SCF Done:  E(RB3LYP) =  -3221.13141361     A.U. after   13 cycles
 SCF Done:  E(RB3LYP) =  -3221.13141341     A.U. after   12 cycles
 SCF Done:  E(RB3LYP) =  -3221.13141351     A.U. after   10 cycles
 Optimization completed.
    -- Stationary point found.

                         Standard orientation:
 ---------------------------------------------------------------------
 Center     Atomic      Atomic             Coordinates (Angstroms)
 Number     Number       Type             X           Y           Z
 ---------------------------------------------------------------------
      1          6           0        1.549013    0.136564   -0.229855
      2          6           0        2.359530    0.520456    0.843777
      3          6           0        3.743243    0.510201    0.717122
      4          6           0        4.350928    0.123828   -0.472674
      5          6           0        3.554223   -0.255151   -1.547546
      6          6           0        2.167687   -0.246910   -1.425006
      7          6           0        0.064448    0.179706   -0.076467
      8          6           0       -0.601796    1.386973   -0.271282
      9          6           0       -1.980154    1.478163   -0.126340
     10          6           0       -2.731070    0.350887    0.222691
     11          6           0       -2.071743   -0.872828    0.427094
     12          6           0       -0.680028   -0.951849    0.277831
     13          1           0        1.902614    0.818752    1.778612
     14          1           0        5.429528    0.119390   -0.561057
     15          1           0        4.007822   -0.555686   -2.483137
     16          1           0       -0.040031    2.269100   -0.548369
     17         17           0        0.144817   -2.464819    0.539493
     18         17           0        1.200329   -0.724025   -2.808377
     19         17           0       -2.983846   -2.283074    0.867985
     20         17           0       -4.453346    0.463482    0.403560
     21         17           0       -2.740762    3.025413   -0.390814
     22         17           0        4.736006    0.994095    2.080969
 ---------------------------------------------------------------------

 The electronic state is 1-A.
 Alpha  occ. eigenvalues -- -101.58013-101.57963-101.57847-101.57736-101.57179
 Alpha  occ. eigenvalues -- -101.57136 -10.28221 -10.28142 -10.27707 -10.27535
 Alpha  occ. eigenvalues --  -10.26498 -10.26289 -10.23676 -10.23254 -10.22213
 Alpha  occ. eigenvalues --  -10.21706 -10.21601 -10.21535  -9.49477  -9.49430
 Alpha  occ. eigenvalues --   -9.49303  -9.49210  -9.48648  -9.48590  -7.25981
 Alpha  occ. eigenvalues --   -7.25934  -7.25794  -7.25700  -7.25115  -7.25058
 Alpha  occ. eigenvalues --   -7.24958  -7.24911  -7.24872  -7.24824  -7.24780
 Alpha  occ. eigenvalues --   -7.24721  -7.24691  -7.24619  -7.24129  -7.24087
 Alpha  occ. eigenvalues --   -7.24069  -7.24035  -0.96290  -0.93278  -0.91579
 Alpha  occ. eigenvalues --   -0.89987  -0.89287  -0.86865  -0.85469  -0.84207
 Alpha  occ. eigenvalues --   -0.80663  -0.76450  -0.75169  -0.74013  -0.67112
 Alpha  occ. eigenvalues --   -0.64315  -0.63775  -0.60916  -0.55039  -0.54700
 Alpha  occ. eigenvalues --   -0.53034  -0.52058  -0.49951  -0.48394  -0.47011
 Alpha  occ. eigenvalues --   -0.46855  -0.46116  -0.45936  -0.43806  -0.43596
 Alpha  occ. eigenvalues --   -0.42067  -0.40659  -0.40248  -0.40092  -0.38562
 Alpha  occ. eigenvalues --   -0.37945  -0.35696  -0.35523  -0.35161  -0.34032
 Alpha  occ. eigenvalues --   -0.33558  -0.33520  -0.33323  -0.33231  -0.31859
 Alpha  occ. eigenvalues --   -0.29447  -0.27792  -0.26825  -0.26442
 Alpha virt. eigenvalues --   -0.06363  -0.06106  -0.05196  -0.04909  -0.04589
 Alpha virt. eigenvalues --   -0.01299  -0.00586  -0.00182   0.00306   0.00935
 Alpha virt. eigenvalues --    0.01948   0.02035   0.02256   0.02552   0.03530

 Mulliken charges:
               1
     1  C   -0.196686
     2  C   -0.742692
     3  C    0.880893
     4  C   -0.570708
     5  C   -0.351217
     6  C   -0.352711
     7  C   -0.170527
     8  C   -0.760525
     9  C   -0.494309
    10  C   -0.164084
    11  C   -0.045670
    12  C   -0.774872
    13  H    0.146435
    14  H    0.156649
    15  H    0.156002
    16  H    0.150995
    17  Cl   0.563104
    18  Cl   0.371300
    19  Cl   0.610864
    20  Cl   0.620200
    21  Cl   0.559771
    22  Cl   0.407788
 Sum of Mulliken charges =  -0.00000

 Dipole moment (field-independent basis, Debye):
    X=              1.9005    Y=              0.6112    Z=             -0.5496  Tot=              2.0706
 Quadrupole moment (field-independent basis, Debye-Ang):
   XX=           -141.3023   YY=           -146.2795   ZZ=           -145.5946
   XY=             -0.5162   XZ=             -5.7370   YZ=              0.0692

 Normal termination of Gaussian 16 at Thu Mar 17 05:56:43 2022.
