 Gaussian 16, Revision B.01,
 Gaussian 16:  EM64L-G16RevB.01 20-Dec-2017

 --------------------------------
 # opt b3lyp/6-311+g(d,p) scf=xqc
 --------------------------------

 -------------------
 Title Card Required
 -------------------
 Symbolic Z-matrix:
 Charge =  0 Multiplicity = 1

 SCF Done:  E(RB3LYP) =  -2760.95086744     A.U. after   28 cycles
 SCF Done:  E(RB3LYP) =  -2761.06224288     A.U. after   18 cycles
 SCF Done:  E(RB3LYP) =  -2761.15966342     A.U. after   19 cycles
 SCF Done:  E(RB3LYP) =  -2761.15642126     A.U. after   18 cycles
 SCF Done:  E(RB3LYP) =  -2761.25748037     A.U. after   17 cycles
 SCF Done:  E(RB3LYP) =  -2761.13371810     A.U. after   18 cycles
 SCF Done:  E(RB3LYP) =  -2761.29079207     A.U. after   15 cycles
 SCF Done:  E(RB3LYP) =  -2761.31121073     A.U. after   14 cycles
 SCF Done:  E(RB3LYP) =  -2761.33795437     A.U. after   15 cycles
 SCF Done:  E(RB3LYP) =  -2761.37357768     A.U. after   14 cycles
 SCF Done:  E(RB3LYP) =  -2761.51260128     A.U. after   11 cycles
 SCF Done:  E(RB3LYP) =  -2761.51261130     A.U. after   11 cycles
 SCF Done:  E(RB3LYP) =  -2761.51262693     A.U. after   12 cycles
 SCF Done:  E(RB3LYP) =  -2761.51264163     A.U. after   12 cycles
 SCF Done:  E(RB3LYP) =  -2761.51266321     A.U. after   13 cycles
 SCF Done:  E(RB3LYP) =  -2761.51267005     A.U. after   12 cycles
 SCF Done:  E(RB3LYP) =  -2761.51268157     A.U. after   13 cycles
 SCF Done:  E(RB3LYP) =  -2761.51269100     A.U. after   12 cycles
 SCF Done:  E(RB3LYP) =  -2761.51269620     A.U. after   12 cycles
 SCF Done:  E(RB3LYP) =  -2761.51269733     A.U. after   11 cycles
 Optimization completed.
    -- Stationary point found.

                         Standard orientation:
 ---------------------------------------------------------------------
 Center     Atomic      Atomic             Coordinates (Angstroms)
 Number     Number       Type             X           Y           Z
 ---------------------------------------------------------------------
      1          6           0        1.515572   -0.000340   -0.399563
      2          6           0        2.095729   -0.001227   -1.672497
      3          6           0        3.477158   -0.001478   -1.832126
      4          6           0        4.303640   -0.000824   -0.710407
      5          6           0        3.748867    0.000137    0.565724
      6          6           0        2.364654    0.000358    0.711115
      7          6           0        0.029037   -0.000145   -0.260203
      8          6           0       -0.683176   -1.208044   -0.202875
      9          6           0       -2.077089   -1.203460   -0.089032
     10          6           0       -2.767530   -0.000040   -0.033351
     11          6           0       -2.077084    1.203361   -0.089781
     12          6           0       -0.683164    1.207733   -0.203542
     13          1           0        1.447823   -0.001724   -2.541437
     14          1           0        3.905274   -0.002185   -2.827405
     15          1           0        5.381489   -0.000997   -0.823774
     16          1           0        4.378278    0.000770    1.446316
     17          1           0       -3.845000   -0.000001    0.054655
     18         17           0        0.185762    2.716867   -0.269145
     19         17           0        1.691090    0.002037    2.333852
     20         17           0       -2.994352    2.685120   -0.017006
     21         17           0       -2.994442   -2.685194   -0.015370
     22         17           0        0.185616   -2.717187   -0.268162
 ---------------------------------------------------------------------

 The electronic state is 1-A.
 Alpha  occ. eigenvalues -- -101.57592-101.57591-101.57388-101.57387-101.56324
 Alpha  occ. eigenvalues --  -10.27371 -10.27370 -10.27241 -10.27241 -10.25521
 Alpha  occ. eigenvalues --  -10.23848 -10.22275 -10.21990 -10.20240 -10.20166
 Alpha  occ. eigenvalues --  -10.20051 -10.19701  -9.49049  -9.49048  -9.48862
 Alpha  occ. eigenvalues --   -9.48860  -9.47798  -7.25539  -7.25538  -7.25352
 Alpha  occ. eigenvalues --   -7.25350  -7.24525  -7.24524  -7.24467  -7.24467
 Alpha  occ. eigenvalues --   -7.24344  -7.24343  -7.24269  -7.24268  -7.24256
 Alpha  occ. eigenvalues --   -7.23281  -7.23241  -0.95625  -0.91703  -0.91379
 Alpha  occ. eigenvalues --   -0.88545  -0.87390  -0.85394  -0.83869  -0.80122
 Alpha  occ. eigenvalues --   -0.76146  -0.74802  -0.73876  -0.66988  -0.63190
 Alpha  occ. eigenvalues --   -0.62018  -0.61065  -0.54694  -0.54538  -0.52750
 Alpha  occ. eigenvalues --   -0.49882  -0.49267  -0.47655  -0.46628  -0.45839
 Alpha  occ. eigenvalues --   -0.45230  -0.44825  -0.42804  -0.42802  -0.40815
 Alpha  occ. eigenvalues --   -0.40402  -0.38606  -0.38403  -0.37066  -0.36034
 Alpha  occ. eigenvalues --   -0.35205  -0.34678  -0.34321  -0.32912  -0.32810
 Alpha  occ. eigenvalues --   -0.32536  -0.32465  -0.27917  -0.27876  -0.26482
 Alpha  occ. eigenvalues --   -0.26138
 Alpha virt. eigenvalues --   -0.05860  -0.05439  -0.04202  -0.03867  -0.03618
 Alpha virt. eigenvalues --   -0.00600  -0.00531   0.00035   0.01040   0.01556
 Alpha virt. eigenvalues --    0.01887   0.02972   0.02992   0.03343   0.04399

 Mulliken charges:
               1
     1  C    0.079295
     2  C   -0.299771
     3  C   -0.348250
     4  C   -0.014007
     5  C   -0.419713
     6  C   -0.683211
     7  C    0.032493
     8  C   -0.988329
     9  C    0.541597
    10  C   -0.692507
    11  C    0.541531
    12  C   -0.988579
    13  H    0.127919
    14  H    0.134304
    15  H    0.136735
    16  H    0.148337
    17  H    0.173934
    18  Cl   0.562551
    19  Cl   0.399504
    20  Cl   0.496704
    21  Cl   0.496636
    22  Cl   0.562829
 Sum of Mulliken charges =  -0.00000

 Dipole moment (field-independent basis, Debye):
    X=              1.4063    Y=             -0.0011    Z=             -1.4839  Tot=              2.0444
 Quadrupole moment (field-independent basis, Debye-Ang):
   XX=           -117.2228   YY=           -138.8194   ZZ=           -130.0036
   XY=             -0.0054   XZ=             -3.5875   YZ=              0.0055

 Normal termination of Gaussian 16 at Thu Apr  7 04:22:40 2022.
