 Gaussian 16, Revision B.01,
 Gaussian 16:  EM64L-G16RevB.01 20-Dec-2017

 --------------------------------
 # opt b3lyp/6-311+g(d,p) scf=xqc
 --------------------------------

 -------------------
 Title Card Required
 -------------------
 Symbolic Z-matrix:
 Charge =  0 Multiplicity = 1

 SCF Done:  E(RB3LYP) =  -2760.95376362     A.U. after   27 cycles
 SCF Done:  E(RB3LYP) =  -2761.06727009     A.U. after   20 cycles
 SCF Done:  E(RB3LYP) =  -2761.16339326     A.U. after   20 cycles
 SCF Done:  E(RB3LYP) =  -2761.16750160     A.U. after   23 cycles
 SCF Done:  E(RB3LYP) =  -2761.23604493     A.U. after   21 cycles
 SCF Done:  E(RB3LYP) =  -2749.31332844     A.U. after   25 cycles
 SCF Done:  E(RB3LYP) =  -2760.14939939     A.U. after   22 cycles
 SCF Done:  E(RB3LYP) =  -2761.24007405     A.U. after   16 cycles
 SCF Done:  E(RB3LYP) =  -2761.16618140     A.U. after   17 cycles
 SCF Done:  E(RB3LYP) =  -2761.31408750     A.U. after   15 cycles
 SCF Done:  E(RB3LYP) =  -2761.52218520     A.U. after   12 cycles
 SCF Done:  E(RB3LYP) =  -2761.52219719     A.U. after   11 cycles
 SCF Done:  E(RB3LYP) =  -2761.52221310     A.U. after   12 cycles
 SCF Done:  E(RB3LYP) =  -2761.52221778     A.U. after   12 cycles
 SCF Done:  E(RB3LYP) =  -2761.52222467     A.U. after   12 cycles
 SCF Done:  E(RB3LYP) =  -2761.52223011     A.U. after   11 cycles
 SCF Done:  E(RB3LYP) =  -2761.52223393     A.U. after   10 cycles
 SCF Done:  E(RB3LYP) =  -2761.52223513     A.U. after   11 cycles
 SCF Done:  E(RB3LYP) =  -2761.52223648     A.U. after   11 cycles
 SCF Done:  E(RB3LYP) =  -2761.52223702     A.U. after   10 cycles
 Optimization completed.
    -- Stationary point found.

                         Standard orientation:
 ---------------------------------------------------------------------
 Center     Atomic      Atomic             Coordinates (Angstroms)
 Number     Number       Type             X           Y           Z
 ---------------------------------------------------------------------
      1          6           0       -0.959944    0.003609    0.161987
      2          6           0       -1.817945   -0.019474   -0.942068
      3          6           0       -3.194570   -0.015700   -0.759453
      4          6           0       -3.748521    0.010870    0.516161
      5          6           0       -2.904032    0.033900    1.620445
      6          6           0       -1.523780    0.030211    1.441482
      7          6           0        0.515208   -0.001055   -0.055861
      8          6           0        1.244246   -1.195038   -0.148882
      9          6           0        2.617786   -1.220015   -0.366400
     10          6           0        3.288435   -0.010702   -0.496219
     11          6           0        2.618562    1.203217   -0.414496
     12          6           0        1.244992    1.187813   -0.196130
     13          1           0       -1.403145   -0.040313   -1.941520
     14          1           0       -4.822812    0.013582    0.647084
     15          1           0       -3.315174    0.054761    2.621368
     16          1           0        3.146582   -2.160234   -0.431138
     17          1           0        3.147929    2.139795   -0.516579
     18         17           0        0.420166    2.730563   -0.092651
     19         17           0       -0.492361    0.059835    2.860034
     20         17           0        5.018806   -0.016717   -0.770369
     21         17           0        0.418364   -2.731903    0.015859
     22         17           0       -4.249446   -0.044920   -2.162438
 ---------------------------------------------------------------------

 The electronic state is 1-A.
 Alpha  occ. eigenvalues -- -101.57563-101.57433-101.57433-101.56797-101.56743
 Alpha  occ. eigenvalues --  -10.27328 -10.27328 -10.27099 -10.26050 -10.25835
 Alpha  occ. eigenvalues --  -10.23409 -10.22837 -10.21772 -10.21771 -10.21244
 Alpha  occ. eigenvalues --  -10.21168 -10.21112  -9.49016  -9.48903  -9.48902
 Alpha  occ. eigenvalues --   -9.48266  -9.48198  -7.25491  -7.25378  -7.25378
 Alpha  occ. eigenvalues --   -7.24731  -7.24664  -7.24494  -7.24454  -7.24384
 Alpha  occ. eigenvalues --   -7.24384  -7.24330  -7.24330  -7.23746  -7.23706
 Alpha  occ. eigenvalues --   -7.23677  -7.23644  -0.94769  -0.92450  -0.89894
 Alpha  occ. eigenvalues --   -0.89762  -0.89057  -0.84187  -0.83425  -0.80894
 Alpha  occ. eigenvalues --   -0.76629  -0.76021  -0.73718  -0.66180  -0.63751
 Alpha  occ. eigenvalues --   -0.63531  -0.61033  -0.55271  -0.53441  -0.52710
 Alpha  occ. eigenvalues --   -0.51677  -0.49356  -0.48189  -0.46597  -0.46334
 Alpha  occ. eigenvalues --   -0.45560  -0.44373  -0.43136  -0.42695  -0.41037
 Alpha  occ. eigenvalues --   -0.40010  -0.39637  -0.38903  -0.38298  -0.37813
 Alpha  occ. eigenvalues --   -0.34320  -0.34179  -0.33361  -0.33321  -0.32916
 Alpha  occ. eigenvalues --   -0.32849  -0.32685  -0.28920  -0.27530  -0.27484
 Alpha  occ. eigenvalues --   -0.26030
 Alpha virt. eigenvalues --   -0.05767  -0.05496  -0.04980  -0.04291  -0.03261
 Alpha virt. eigenvalues --   -0.00872  -0.00354   0.00596   0.01025   0.01263
 Alpha virt. eigenvalues --    0.01304   0.02137   0.02170   0.03379   0.03979

 Mulliken charges:
               1
     1  C   -0.236225
     2  C   -0.692195
     3  C    0.739637
     4  C   -0.588719
     5  C   -0.340186
     6  C   -0.715403
     7  C    0.296643
     8  C   -0.538764
     9  C   -0.464444
    10  C    0.724276
    11  C   -0.463707
    12  C   -0.538435
    13  H    0.146126
    14  H    0.155590
    15  H    0.154036
    16  H    0.169972
    17  H    0.169975
    18  Cl   0.388072
    19  Cl   0.396422
    20  Cl   0.429819
    21  Cl   0.388556
    22  Cl   0.418954
 Sum of Mulliken charges =  -0.00000

 Dipole moment (field-independent basis, Debye):
    X=             -0.2617    Y=              0.0045    Z=              0.2122  Tot=              0.3369
 Quadrupole moment (field-independent basis, Debye-Ang):
   XX=           -128.1087   YY=           -133.4665   ZZ=           -133.6601
   XY=             -0.1294   XZ=             -6.2449   YZ=             -0.0015

 Normal termination of Gaussian 16 at Wed Apr 13 01:17:21 2022.
