 Gaussian 16, Revision B.01,
 Gaussian 16:  EM64L-G16RevB.01 20-Dec-2017

 --------------------------------
 # opt b3lyp/6-311+g(d,p) scf=xqc
 --------------------------------

 -------------------
 Title Card Required
 -------------------
 Symbolic Z-matrix:
 Charge =  0 Multiplicity = 1

 SCF Done:  E(RB3LYP) =  -1840.65617414     A.U. after   23 cycles
 SCF Done:  E(RB3LYP) =  -1841.16536159     A.U. after   17 cycles
 SCF Done:  E(RB3LYP) =  -1841.70017763     A.U. after   19 cycles
 SCF Done:  E(RB3LYP) =  -1841.97067425     A.U. after   20 cycles
 SCF Done:  E(RB3LYP) =  -1841.98734771     A.U. after   23 cycles
 SCF Done:  E(RB3LYP) =  -1842.01704957     A.U. after   19 cycles
 SCF Done:  E(RB3LYP) =  -1842.02995074     A.U. after   18 cycles
 SCF Done:  E(RB3LYP) =  -1842.04083190     A.U. after   18 cycles
 SCF Done:  E(RB3LYP) =  -1842.05864674     A.U. after   18 cycles
 SCF Done:  E(RB3LYP) =  -1842.08004866     A.U. after   16 cycles
 SCF Done:  E(RB3LYP) =  -1842.27823789     A.U. after   13 cycles
 SCF Done:  E(RB3LYP) =  -1842.27847493     A.U. after   14 cycles
 SCF Done:  E(RB3LYP) =  -1842.27857647     A.U. after   14 cycles
 SCF Done:  E(RB3LYP) =  -1842.27868642     A.U. after   14 cycles
 SCF Done:  E(RB3LYP) =  -1842.27875938     A.U. after   14 cycles
 SCF Done:  E(RB3LYP) =  -1842.27878686     A.U. after   14 cycles
 SCF Done:  E(RB3LYP) =  -1842.27879523     A.U. after   13 cycles
 SCF Done:  E(RB3LYP) =  -1842.27879679     A.U. after   12 cycles
 SCF Done:  E(RB3LYP) =  -1842.27879732     A.U. after   11 cycles
 SCF Done:  E(RB3LYP) =  -1842.27879757     A.U. after   11 cycles
 Optimization completed.
    -- Stationary point found.

                         Standard orientation:
 ---------------------------------------------------------------------
 Center     Atomic      Atomic             Coordinates (Angstroms)
 Number     Number       Type             X           Y           Z
 ---------------------------------------------------------------------
      1          6           0       -0.115321    0.740538   -0.271201
      2          6           0       -0.450353    2.094580   -0.189691
      3          6           0       -1.775822    2.499208   -0.070967
      4          6           0       -2.791486    1.551716   -0.034410
      5          6           0       -2.477487    0.197829   -0.118129
      6          6           0       -1.144559   -0.212939   -0.237346
      7          6           0        1.317873    0.347859   -0.419117
      8          6           0        1.913907    0.358105   -1.686136
      9          6           0        3.253627    0.024233   -1.858867
     10          6           0        4.026918   -0.326834   -0.754676
     11          6           0        3.460132   -0.340447    0.516241
     12          6           0        2.118087   -0.004818    0.673423
     13          1           0        0.345230    2.829601   -0.212741
     14          1           0       -2.020545    3.552560   -0.005084
     15          1           0       -3.828435    1.847697    0.058180
     16          1           0        1.306212    0.626776   -2.542660
     17          1           0        3.689662    0.036843   -2.850787
     18          1           0        5.071298   -0.589591   -0.876851
     19          1           0        4.048711   -0.607525    1.384571
     20         17           0       -0.749676   -1.910266   -0.352009
     21         17           0        1.438663   -0.024575    2.295121
     22         17           0       -3.784589   -0.963425   -0.075428
 ---------------------------------------------------------------------

 The electronic state is 1-A.
 Alpha  occ. eigenvalues -- -101.56343-101.56212-101.55800 -10.25879 -10.25733
 Alpha  occ. eigenvalues --  -10.25011 -10.21748 -10.21274 -10.20325 -10.19960
 Alpha  occ. eigenvalues --  -10.19899 -10.19762 -10.19731 -10.19628 -10.19312
 Alpha  occ. eigenvalues --   -9.47804  -9.47688  -9.47274  -7.24283  -7.24167
 Alpha  occ. eigenvalues --   -7.23732  -7.23287  -7.23229  -7.23174  -7.23104
 Alpha  occ. eigenvalues --   -7.22760  -7.22716  -0.92984  -0.90556  -0.86727
 Alpha  occ. eigenvalues --   -0.85426  -0.84807  -0.79747  -0.75573  -0.74558
 Alpha  occ. eigenvalues --   -0.74090  -0.65458  -0.62557  -0.61923  -0.60255
 Alpha  occ. eigenvalues --   -0.54430  -0.52172  -0.50681  -0.49151  -0.48447
 Alpha  occ. eigenvalues --   -0.46683  -0.45061  -0.44758  -0.44389  -0.42578
 Alpha  occ. eigenvalues --   -0.41040  -0.40289  -0.38835  -0.37802  -0.37314
 Alpha  occ. eigenvalues --   -0.35533  -0.34816  -0.34149  -0.33535  -0.32120
 Alpha  occ. eigenvalues --   -0.31448  -0.27626  -0.27047  -0.26005  -0.25974
 Alpha virt. eigenvalues --   -0.04372  -0.04234  -0.03369  -0.02859  -0.01600
 Alpha virt. eigenvalues --   -0.00432   0.00304   0.01405   0.01959   0.02394
 Alpha virt. eigenvalues --    0.02979   0.03107   0.04184   0.04620   0.05042

 Mulliken charges:
               1
     1  C    0.301982
     2  C   -0.354010
     3  C   -0.466303
     4  C   -0.444233
     5  C    0.625478
     6  C   -1.276401
     7  C    1.399582
     8  C   -0.733112
     9  C   -0.194687
    10  C   -0.117337
    11  C   -0.691525
    12  C   -0.424813
    13  H    0.129508
    14  H    0.137660
    15  H    0.151812
    16  H    0.129674
    17  H    0.133084
    18  H    0.134610
    19  H    0.148757
    20  Cl   0.549860
    21  Cl   0.410564
    22  Cl   0.449851
 Sum of Mulliken charges =  -0.00000

 Dipole moment (field-independent basis, Debye):
    X=              1.6280    Y=              2.2813    Z=             -1.4293  Tot=              3.1461
 Quadrupole moment (field-independent basis, Debye-Ang):
   XX=            -98.0909   YY=           -104.1350   ZZ=           -107.3981
   XY=             -6.6199   XZ=             -3.6297   YZ=             -1.0284

 1\1\GINC-DAMODAR\FOpt\RB3LYP\6-311+G(d,p)\C12H7Cl3\PKC\14-Mar-2022\0\\
 # opt b3lyp/6-311+g(d,p) scf=xqc\\Title Card Required\\0,1\C,-5.200111
 4684,-2.3046475523,0.5013306561\C,-3.8743317757,-2.3425837723,0.940863
 3651\C,-3.1089002937,-1.1833229054,1.0109840395\C,-3.6592486029,0.0369
 092515,0.6384230603\C,-4.9776051466,0.0941003451,0.1942615198\C,-5.750
 920274,-1.0705933875,0.1227608441\C,-5.9819251926,-3.5744240398,0.4203
 738576\C,-5.8512781082,-4.4004283645,-0.7027232898\C,-6.5432458829,-5.
 6036125237,-0.8011296774\C,-7.3841404921,-6.0046459905,0.2345027981\C,

 Normal termination of Gaussian 16 at Mon Mar 14 22:45:19 2022.
