 Gaussian 16, Revision B.01,
 Gaussian 16:  EM64L-G16RevB.01 20-Dec-2017

 --------------------------------
 # opt b3lyp/6-311+g(d,p) scf=xqc
 --------------------------------

 -------------------
 Title Card Required
 -------------------
 Symbolic Z-matrix:
 Charge =  0 Multiplicity = 1

 SCF Done:  E(RB3LYP) =  -3680.19094868     A.U. after   30 cycles
 SCF Done:  E(RB3LYP) =  -3680.31847987     A.U. after   19 cycles
 SCF Done:  E(RB3LYP) =  -3677.59615309     A.U. after   24 cycles
 SCF Done:  E(RB3LYP) =  -3680.39055397     A.U. after   18 cycles
 SCF Done:  E(RB3LYP) =  -3680.43105766     A.U. after   16 cycles
 SCF Done:  E(RB3LYP) =  -3680.47456024     A.U. after   15 cycles
 SCF Done:  E(RB3LYP) =  -3680.53682044     A.U. after   15 cycles
 SCF Done:  E(RB3LYP) =  -3680.57116323     A.U. after   15 cycles
 SCF Done:  E(RB3LYP) =  -3680.59764052     A.U. after   16 cycles
 SCF Done:  E(RB3LYP) =  -3680.63069315     A.U. after   15 cycles
 SCF Done:  E(RB3LYP) =  -3680.74971825     A.U. after   14 cycles
 SCF Done:  E(RB3LYP) =  -3680.74978927     A.U. after   14 cycles
 SCF Done:  E(RB3LYP) =  -3680.74985263     A.U. after   14 cycles
 SCF Done:  E(RB3LYP) =  -3680.74989701     A.U. after   14 cycles
 SCF Done:  E(RB3LYP) =  -3680.74993272     A.U. after   13 cycles
 SCF Done:  E(RB3LYP) =  -3680.74995105     A.U. after   13 cycles
 SCF Done:  E(RB3LYP) =  -3680.74996125     A.U. after   13 cycles
 SCF Done:  E(RB3LYP) =  -3680.74996617     A.U. after   12 cycles
 SCF Done:  E(RB3LYP) =  -3680.74996803     A.U. after   12 cycles
 SCF Done:  E(RB3LYP) =  -3680.74996828     A.U. after   11 cycles
 Optimization completed.
    -- Stationary point found.

                         Standard orientation:
 ---------------------------------------------------------------------
 Center     Atomic      Atomic             Coordinates (Angstroms)
 Number     Number       Type             X           Y           Z
 ---------------------------------------------------------------------
      1          6           0        0.815231    0.137903   -0.077513
      2          6           0        1.603938   -0.071048    1.054069
      3          6           0        2.985845   -0.202148    0.962849
      4          6           0        3.603807   -0.123082   -0.288823
      5          6           0        2.833164    0.086177   -1.428801
      6          6           0        1.454346    0.214966   -1.318785
      7          6           0       -0.662117    0.279585    0.067748
      8          6           0       -1.255956    1.527492    0.285797
      9          6           0       -2.628084    1.672499    0.434201
     10          6           0       -3.445312    0.551678    0.366626
     11          6           0       -2.900152   -0.719986    0.151390
     12          6           0       -1.509748   -0.837286    0.004916
     13          1           0        1.134246   -0.133797    2.027238
     14          1           0        3.310960    0.148067   -2.396681
     15          1           0       -3.061498    2.648411    0.600490
     16         17           0       -0.803329   -2.407521   -0.268277
     17         17           0        0.523841    0.478240   -2.778537
     18         17           0       -3.925355   -2.117479    0.070161
     19         17           0       -5.163139    0.775373    0.558251
     20         17           0        5.330698   -0.279783   -0.466983
     21         17           0        3.905073   -0.461658    2.422115
     22         17           0       -0.265052    2.967935    0.374264
 ---------------------------------------------------------------------

 The electronic state is 1-A.
 Alpha  occ. eigenvalues -- -101.58286-101.58217-101.58216-101.58075-101.57785
 Alpha  occ. eigenvalues -- -101.57641-101.57638 -10.28538 -10.28270 -10.28201
 Alpha  occ. eigenvalues --  -10.27862 -10.27533 -10.27167 -10.27148 -10.24377
 Alpha  occ. eigenvalues --  -10.23584 -10.22650 -10.22319 -10.22271  -9.49743
 Alpha  occ. eigenvalues --   -9.49693  -9.49679  -9.49543  -9.49241  -9.49107
 Alpha  occ. eigenvalues --   -9.49096  -7.26237  -7.26185  -7.26184  -7.26022
 Alpha  occ. eigenvalues --   -7.25729  -7.25583  -7.25579  -7.25221  -7.25175
 Alpha  occ. eigenvalues --   -7.25158  -7.25156  -7.25095  -7.25076  -7.25021
 Alpha  occ. eigenvalues --   -7.24970  -7.24720  -7.24660  -7.24584  -7.24572
 Alpha  occ. eigenvalues --   -7.24543  -7.24518  -0.96567  -0.94745  -0.91845
 Alpha  occ. eigenvalues --   -0.91110  -0.90322  -0.88239  -0.87669  -0.85009
 Alpha  occ. eigenvalues --   -0.84100  -0.80356  -0.76762  -0.75716  -0.73958
 Alpha  occ. eigenvalues --   -0.66653  -0.65116  -0.64055  -0.61214  -0.55610
 Alpha  occ. eigenvalues --   -0.55273  -0.53761  -0.52652  -0.50032  -0.49009
 Alpha  occ. eigenvalues --   -0.47408  -0.47213  -0.46730  -0.46228  -0.45094
 Alpha  occ. eigenvalues --   -0.44269  -0.42814  -0.41747  -0.41391  -0.40313
 Alpha  occ. eigenvalues --   -0.39411  -0.39132  -0.36939  -0.36159  -0.35995
 Alpha  occ. eigenvalues --   -0.35034  -0.34926  -0.34436  -0.33899  -0.33526
 Alpha  occ. eigenvalues --   -0.33217  -0.32901  -0.32369  -0.28599  -0.28265
 Alpha  occ. eigenvalues --   -0.27228  -0.26685
 Alpha virt. eigenvalues --   -0.06653  -0.06370  -0.05862  -0.05308  -0.04986
 Alpha virt. eigenvalues --   -0.02965  -0.00788  -0.00498   0.00041   0.00729
 Alpha virt. eigenvalues --    0.01157   0.01671   0.02226   0.02339   0.02528

 Mulliken charges:
               1
     1  C   -0.028392
     2  C   -0.842272
     3  C    0.190298
     4  C    0.130425
     5  C   -0.536762
     6  C   -1.284556
     7  C    0.064093
     8  C   -0.302131
     9  C   -0.714209
    10  C    0.051748
    11  C    0.719932
    12  C   -1.502320
    13  H    0.151984
    14  H    0.172823
    15  H    0.174468
    16  Cl   0.592984
    17  Cl   0.385942
    18  Cl   0.594371
    19  Cl   0.535895
    20  Cl   0.504950
    21  Cl   0.542796
    22  Cl   0.397932
 Sum of Mulliken charges =  -0.00000

 Dipole moment (field-independent basis, Debye):
    X=             -0.4814    Y=              0.7979    Z=              0.1277  Tot=              0.9405
 Quadrupole moment (field-independent basis, Debye-Ang):
   XX=           -161.1915   YY=           -156.8984   ZZ=           -155.7780
   XY=             -2.7915   XZ=             -3.8079   YZ=              0.5761

 Normal termination of Gaussian 16 at Wed Apr 13 12:44:52 2022.
