 Gaussian 16, Revision B.01,
 Gaussian 16:  EM64L-G16RevB.01 20-Dec-2017

 --------------------------------
 # opt b3lyp/6-311+g(d,p) scf=xqc
 --------------------------------

 -------------------
 Title Card Required
 -------------------
 Symbolic Z-matrix:
 Charge =  0 Multiplicity = 1

 SCF Done:  E(RB3LYP) =  -2301.32758590     A.U. after   29 cycles
 SCF Done:  E(RB3LYP) =  -2301.44347593     A.U. after   20 cycles
 SCF Done:  E(RB3LYP) =  -2301.54440972     A.U. after   19 cycles
 SCF Done:  E(RB3LYP) =  -2301.55780859     A.U. after   20 cycles
 SCF Done:  E(RB3LYP) =  -2301.62797413     A.U. after   19 cycles
 SCF Done:  E(RB3LYP) =  -2301.36648225     A.U. after   19 cycles
 SCF Done:  E(RB3LYP) =  -2301.66589592     A.U. after   18 cycles
 SCF Done:  E(RB3LYP) =  -2301.70693796     A.U. after   15 cycles
 SCF Done:  E(RB3LYP) =  -2301.23650777     A.U. after   18 cycles
 SCF Done:  E(RB3LYP) =  -2301.76454825     A.U. after   15 cycles
 SCF Done:  E(RB3LYP) =  -2301.90063103     A.U. after   16 cycles
 SCF Done:  E(RB3LYP) =  -2301.90085348     A.U. after   13 cycles
 SCF Done:  E(RB3LYP) =  -2301.90105084     A.U. after   13 cycles
 SCF Done:  E(RB3LYP) =  -2301.90114099     A.U. after   13 cycles
 SCF Done:  E(RB3LYP) =  -2301.90115264     A.U. after   12 cycles
 SCF Done:  E(RB3LYP) =  -2301.90115489     A.U. after   11 cycles
 SCF Done:  E(RB3LYP) =  -2301.90115577     A.U. after   10 cycles
 SCF Done:  E(RB3LYP) =  -2301.90115641     A.U. after   11 cycles
 SCF Done:  E(RB3LYP) =  -2301.90115663     A.U. after   10 cycles
 SCF Done:  E(RB3LYP) =  -2301.90115672     A.U. after    9 cycles
 Optimization completed.
    -- Stationary point found.

                         Standard orientation:
 ---------------------------------------------------------------------
 Center     Atomic      Atomic             Coordinates (Angstroms)
 Number     Number       Type             X           Y           Z
 ---------------------------------------------------------------------
      1          6           0       -1.375425    0.002244   -0.399291
      2          6           0       -1.973272    0.008080   -1.664581
      3          6           0       -3.356552    0.008660   -1.807641
      4          6           0       -4.169250    0.003382   -0.675916
      5          6           0       -3.598599   -0.002536    0.593089
      6          6           0       -2.212497   -0.003089    0.720985
      7          6           0        0.110644    0.001498   -0.278660
      8          6           0        0.849842    1.191801   -0.225470
      9          6           0        2.237496    1.211872   -0.129522
     10          6           0        2.914013   -0.000007   -0.085121
     11          6           0        2.236547   -1.211222   -0.135390
     12          6           0        0.848994   -1.189644   -0.231262
     13          1           0       -1.336038    0.012196   -2.541383
     14          1           0       -3.797004    0.013252   -2.797563
     15          1           0       -5.248461    0.003825   -0.775990
     16          1           0       -4.216965   -0.006739    1.481466
     17          1           0        2.771789    2.150347   -0.089433
     18          1           0        2.770322   -2.150175   -0.099902
     19         17           0        0.015514   -2.730818   -0.289113
     20         17           0       -1.520368   -0.010857    2.336434
     21         17           0        4.662706   -0.001078    0.035903
     22         17           0        0.017720    2.733993   -0.275255
 ---------------------------------------------------------------------

 The electronic state is 1-A.
 Alpha  occ. eigenvalues -- -101.57225-101.56977-101.56975-101.56073 -10.26839
 Alpha  occ. eigenvalues --  -10.26838 -10.26672 -10.25254 -10.22849 -10.21654
 Alpha  occ. eigenvalues --  -10.21350 -10.21349 -10.19968 -10.19931 -10.19825
 Alpha  occ. eigenvalues --  -10.19463  -9.48678  -9.48447  -9.48445  -9.47546
 Alpha  occ. eigenvalues --   -7.25151  -7.24920  -7.24919  -7.24156  -7.24118
 Alpha  occ. eigenvalues --   -7.24004  -7.23929  -7.23927  -7.23874  -7.23872
 Alpha  occ. eigenvalues --   -7.23030  -7.22989  -0.94189  -0.90959  -0.89287
 Alpha  occ. eigenvalues --   -0.89155  -0.85141  -0.83031  -0.80117  -0.76185
 Alpha  occ. eigenvalues --   -0.75697  -0.73934  -0.64884  -0.63269  -0.62710
 Alpha  occ. eigenvalues --   -0.60766  -0.55356  -0.52950  -0.52031  -0.49520
 Alpha  occ. eigenvalues --   -0.48742  -0.47557  -0.46154  -0.45397  -0.44637
 Alpha  occ. eigenvalues --   -0.43804  -0.41883  -0.41818  -0.40037  -0.38457
 Alpha  occ. eigenvalues --   -0.38187  -0.37993  -0.37517  -0.34573  -0.33910
 Alpha  occ. eigenvalues --   -0.33695  -0.32683  -0.32492  -0.32242  -0.27756
 Alpha  occ. eigenvalues --   -0.27093  -0.27007  -0.26227
 Alpha virt. eigenvalues --   -0.05244  -0.04979  -0.03889  -0.03356  -0.02848
 Alpha virt. eigenvalues --   -0.00505   0.00079   0.01361   0.01517   0.01620
 Alpha virt. eigenvalues --    0.01995   0.02403   0.03180   0.04208   0.04547

 Mulliken charges:
               1
     1  C    0.259079
     2  C   -0.521858
     3  C   -0.294074
     4  C   -0.049719
     5  C   -0.175484
     6  C   -0.869388
     7  C    0.338722
     8  C   -0.535852
     9  C   -0.419324
    10  C    0.744811
    11  C   -0.416940
    12  C   -0.536818
    13  H    0.128256
    14  H    0.133506
    15  H    0.135588
    16  H    0.147965
    17  H    0.169031
    18  H    0.169040
    19  Cl   0.384564
    20  Cl   0.401805
    21  Cl   0.421583
    22  Cl   0.385508
 Sum of Mulliken charges =  -0.00000

 Dipole moment (field-independent basis, Debye):
    X=             -1.2922    Y=              0.0065    Z=             -1.4840  Tot=              1.9677
 Quadrupole moment (field-independent basis, Debye-Ang):
   XX=           -110.0162   YY=           -122.3763   ZZ=           -118.6674
   XY=             -0.0133   XZ=              2.9474   YZ=             -0.0228

 Normal termination of Gaussian 16 at Sun Apr  3 14:09:28 2022.
