 Gaussian 16, Revision B.01,
 Gaussian 16:  EM64L-G16RevB.01 20-Dec-2017

 --------------------------------
 # opt b3lyp/6-311+g(d,p) scf=xqc
 --------------------------------

 -------------------
 Title Card Required
 -------------------
 Symbolic Z-matrix:
 Charge =  0 Multiplicity = 1

 SCF Done:  E(RB3LYP) =  -4139.79843403     A.U. after   27 cycles
 SCF Done:  E(RB3LYP) =  -4139.89166916     A.U. after   21 cycles
 SCF Done:  E(RB3LYP) =  -4140.05940639     A.U. after   19 cycles
 SCF Done:  E(RB3LYP) =  -4139.75535814     A.U. after   18 cycles
 SCF Done:  E(RB3LYP) =  -4140.14136727     A.U. after   17 cycles
 SCF Done:  E(RB3LYP) =  -4140.04306356     A.U. after   18 cycles
 SCF Done:  E(RB3LYP) =  -4140.18284790     A.U. after   15 cycles
 SCF Done:  E(RB3LYP) =  -4140.20760874     A.U. after   15 cycles
 SCF Done:  E(RB3LYP) =  -4140.23662734     A.U. after   15 cycles
 SCF Done:  E(RB3LYP) =  -4140.24354220     A.U. after   15 cycles
 SCF Done:  E(RB3LYP) =  -4140.35537859     A.U. after   12 cycles
 SCF Done:  E(RB3LYP) =  -4140.35540029     A.U. after   12 cycles
 SCF Done:  E(RB3LYP) =  -4140.35543350     A.U. after   12 cycles
 SCF Done:  E(RB3LYP) =  -4140.35547672     A.U. after   13 cycles
 SCF Done:  E(RB3LYP) =  -4140.35552732     A.U. after   13 cycles
 SCF Done:  E(RB3LYP) =  -4140.35554162     A.U. after   12 cycles
 SCF Done:  E(RB3LYP) =  -4140.35555374     A.U. after   12 cycles
 SCF Done:  E(RB3LYP) =  -4140.35555799     A.U. after   12 cycles
 SCF Done:  E(RB3LYP) =  -4140.35555874     A.U. after   10 cycles
 SCF Done:  E(RB3LYP) =  -4140.35555894     A.U. after   10 cycles
 Optimization completed.
    -- Stationary point found.

                         Standard orientation:
 ---------------------------------------------------------------------
 Center     Atomic      Atomic             Coordinates (Angstroms)
 Number     Number       Type             X           Y           Z
 ---------------------------------------------------------------------
      1          6           0       -1.018073    0.000184   -0.504063
      2          6           0       -1.561231   -0.000046   -1.788914
      3          6           0       -2.933921   -0.000206   -1.984435
      4          6           0       -3.790108   -0.000140   -0.888010
      5          6           0       -3.276710    0.000098    0.415240
      6          6           0       -1.884411    0.000254    0.594590
      7          6           0        0.464792    0.000077   -0.329149
      8          6           0        1.178056    1.202633   -0.258437
      9          6           0        2.571004    1.214520   -0.117339
     10          6           0        3.266972   -0.000172   -0.046187
     11          6           0        2.570748   -1.214795   -0.117040
     12          6           0        1.177801   -1.202620   -0.258063
     13          1           0       -0.897168   -0.000120   -2.644585
     14          1           0       -3.350617   -0.000369   -2.982803
     15         17           0        0.301376   -2.706076   -0.340798
     16         17           0       -1.212097    0.000824    2.203755
     17         17           0        3.430726   -2.719342   -0.030900
     18         17           0       -4.343925    0.000219    1.784773
     19         17           0        4.993329   -0.000315    0.127203
     20         17           0       -5.510928   -0.000353   -1.176185
     21         17           0        3.431262    2.718952   -0.031471
     22         17           0        0.301922    2.706195   -0.341188
 ---------------------------------------------------------------------

 The electronic state is 1-A.
 Alpha  occ. eigenvalues -- -101.58613-101.58504-101.58504-101.58399-101.58399
 Alpha  occ. eigenvalues -- -101.57843-101.57791-101.57711 -10.29027 -10.28713
 Alpha  occ. eigenvalues --  -10.28707 -10.28592 -10.28592 -10.27821 -10.27768
 Alpha  occ. eigenvalues --  -10.27469 -10.24815 -10.23604 -10.21864 -10.21770
 Alpha  occ. eigenvalues --   -9.50079  -9.49970  -9.49970  -9.49876  -9.49875
 Alpha  occ. eigenvalues --   -9.49320  -9.49256  -9.49170  -7.26589  -7.26479
 Alpha  occ. eigenvalues --   -7.26478  -7.26370  -7.26370  -7.25805  -7.25757
 Alpha  occ. eigenvalues --   -7.25657  -7.25560  -7.25468  -7.25449  -7.25448
 Alpha  occ. eigenvalues --   -7.25362  -7.25361  -7.25355  -7.25355  -7.25277
 Alpha  occ. eigenvalues --   -7.25277  -7.24800  -7.24737  -7.24733  -7.24654
 Alpha  occ. eigenvalues --   -7.24651  -7.24587  -0.97637  -0.95385  -0.93015
 Alpha  occ. eigenvalues --   -0.92135  -0.90189  -0.88474  -0.88126  -0.87221
 Alpha  occ. eigenvalues --   -0.85690  -0.84410  -0.79554  -0.76500  -0.75059
 Alpha  occ. eigenvalues --   -0.74568  -0.66568  -0.64438  -0.63748  -0.62133
 Alpha  occ. eigenvalues --   -0.56681  -0.55512  -0.53731  -0.52760  -0.50052
 Alpha  occ. eigenvalues --   -0.48938  -0.47794  -0.47412  -0.47325  -0.46891
 Alpha  occ. eigenvalues --   -0.45597  -0.44932  -0.43749  -0.41820  -0.41680
 Alpha  occ. eigenvalues --   -0.41640  -0.39751  -0.38886  -0.36899  -0.36669
 Alpha  occ. eigenvalues --   -0.36362  -0.36352  -0.35980  -0.35383  -0.34991
 Alpha  occ. eigenvalues --   -0.34367  -0.34341  -0.33785  -0.33240  -0.32080
 Alpha  occ. eigenvalues --   -0.31848  -0.27975  -0.27659  -0.27400  -0.27184
 Alpha virt. eigenvalues --   -0.06885  -0.06740  -0.06321  -0.05905  -0.05397
 Alpha virt. eigenvalues --   -0.03912  -0.01232  -0.00951  -0.00111   0.00883
 Alpha virt. eigenvalues --    0.01464   0.01893   0.02093   0.02261   0.02392

 Mulliken charges:
               1
     1  C    0.102361
     2  C   -0.427512
     3  C   -1.019782
     4  C    0.469838
     5  C    0.396486
     6  C   -1.611880
     7  C   -0.751811
     8  C   -1.369833
     9  C    0.103295
    10  C    0.335383
    11  C    0.102189
    12  C   -1.370277
    13  H    0.135883
    14  H    0.159214
    15  Cl   0.588577
    16  Cl   0.527892
    17  Cl   0.632391
    18  Cl   0.583387
    19  Cl   0.680946
    20  Cl   0.512285
    21  Cl   0.632387
    22  Cl   0.588582
 Sum of Mulliken charges =  -0.00000

 Dipole moment (field-independent basis, Debye):
    X=              0.2782    Y=             -0.0001    Z=             -1.9329  Tot=              1.9528
 Quadrupole moment (field-independent basis, Debye-Ang):
   XX=           -173.9501   YY=           -170.7563   ZZ=           -163.5932
   XY=             -0.0000   XZ=              3.8544   YZ=              0.0009

 Normal termination of Gaussian 16 at Sat Apr  2 03:11:04 2022.
