 Gaussian 16, Revision B.01,
 Gaussian 16:  EM64L-G16RevB.01 20-Dec-2017

 --------------------------------
 # opt b3lyp/6-311+g(d,p) scf=xqc
 --------------------------------

 -------------------
 Title Card Required
 -------------------
 Symbolic Z-matrix:
 Charge =  0 Multiplicity = 1

 SCF Done:  E(RB3LYP) =  -1381.03288195     A.U. after   18 cycles
 SCF Done:  E(RB3LYP) =  -1381.54016009     A.U. after   17 cycles
 SCF Done:  E(RB3LYP) =  -1382.07294202     A.U. after   18 cycles
 SCF Done:  E(RB3LYP) =  -1382.34404692     A.U. after   17 cycles
 SCF Done:  E(RB3LYP) =  -1382.36686708     A.U. after   33 cycles
 SCF Done:  E(RB3LYP) =  -1382.36686708     a.u. after    3 cycles
 SCF Done:  E(RB3LYP) =  -1382.40458705     A.U. after   19 cycles
 SCF Done:  E(RB3LYP) =  -1382.43498612     A.U. after   20 cycles
 SCF Done:  E(RB3LYP) =  -1382.45152591     A.U. after   18 cycles
 SCF Done:  E(RB3LYP) =  -1382.49515213     A.U. after   18 cycles
 SCF Done:  E(RB3LYP) =  -1382.66117036     A.U. after   14 cycles
 SCF Done:  E(RB3LYP) =  -1382.66128623     A.U. after   13 cycles
 SCF Done:  E(RB3LYP) =  -1382.66142552     A.U. after   14 cycles
 SCF Done:  E(RB3LYP) =  -1382.66152976     A.U. after   14 cycles
 SCF Done:  E(RB3LYP) =  -1382.66160354     A.U. after   13 cycles
 SCF Done:  E(RB3LYP) =  -1382.66164732     A.U. after   13 cycles
 SCF Done:  E(RB3LYP) =  -1382.66164958     A.U. after   12 cycles
 SCF Done:  E(RB3LYP) =  -1382.66165000     A.U. after   11 cycles
 SCF Done:  E(RB3LYP) =  -1382.66165033     A.U. after   11 cycles
 SCF Done:  E(RB3LYP) =  -1382.66165060     A.U. after   11 cycles
 Optimization completed.
    -- Stationary point found.

                         Standard orientation:
 ---------------------------------------------------------------------
 Center     Atomic      Atomic             Coordinates (Angstroms)
 Number     Number       Type             X           Y           Z
 ---------------------------------------------------------------------
      1          6           0       -0.741445    0.552710    0.083169
      2          6           0       -1.343567    1.479184    0.943848
      3          6           0       -2.724368    1.524935    1.110021
      4          6           0       -3.535147    0.635988    0.408077
      5          6           0       -2.963545   -0.291429   -0.457871
      6          6           0       -1.580287   -0.325380   -0.612867
      7          6           0        0.741463    0.552659   -0.083451
      8          6           0        1.343663    1.478796   -0.944428
      9          6           0        2.724475    1.524459   -1.110509
     10          6           0        3.535199    0.635773   -0.408145
     11          6           0        2.963516   -0.291304    0.458090
     12          6           0        1.580231   -0.325193    0.612973
     13          1           0       -0.707547    2.164577    1.492349
     14          1           0       -3.163398    2.249634    1.785580
     15          1           0       -4.611893    0.661074    0.529573
     16          1           0       -3.580065   -0.986040   -1.013925
     17          1           0        0.707716    2.164000   -1.493249
     18          1           0        3.163574    2.248888   -1.786311
     19          1           0        4.611952    0.660848   -0.529576
     20          1           0        3.579950   -0.985728    1.014483
     21         17           0       -0.897472   -1.502781   -1.726942
     22         17           0        0.897389   -1.502186    1.727391
 ---------------------------------------------------------------------

 The electronic state is 1-A.
 Alpha  occ. eigenvalues -- -101.55411-101.55411 -10.24609 -10.24608 -10.20819
 Alpha  occ. eigenvalues --  -10.20790 -10.19398 -10.19398 -10.19324 -10.19324
 Alpha  occ. eigenvalues --  -10.19270 -10.19270 -10.18952 -10.18951  -9.46884
 Alpha  occ. eigenvalues --   -9.46884  -7.23342  -7.23342  -7.22371  -7.22371
 Alpha  occ. eigenvalues --   -7.22326  -7.22326  -0.91269  -0.89245  -0.84643
 Alpha  occ. eigenvalues --   -0.84386  -0.79880  -0.75510  -0.74734  -0.73390
 Alpha  occ. eigenvalues --   -0.64616  -0.62110  -0.61960  -0.59531  -0.54267
 Alpha  occ. eigenvalues --   -0.51574  -0.48967  -0.48498  -0.47949  -0.46231
 Alpha  occ. eigenvalues --   -0.44143  -0.44002  -0.43998  -0.40412  -0.40326
 Alpha  occ. eigenvalues --   -0.39357  -0.37310  -0.37129  -0.36420  -0.34570
 Alpha  occ. eigenvalues --   -0.33602  -0.31777  -0.31761  -0.27446  -0.27026
 Alpha  occ. eigenvalues --   -0.25735  -0.25504
 Alpha virt. eigenvalues --   -0.03816  -0.03566  -0.02647  -0.02320  -0.00192
 Alpha virt. eigenvalues --   -0.00185   0.01303   0.01850   0.02028   0.02417
 Alpha virt. eigenvalues --    0.03310   0.04084   0.04716   0.05023   0.05385

 Mulliken charges:
               1
     1  C    1.090550
     2  C   -0.720072
     3  C   -0.219668
     4  C   -0.098478
     5  C   -0.538952
     6  C   -0.432231
     7  C    1.090570
     8  C   -0.719777
     9  C   -0.219685
    10  C   -0.098506
    11  C   -0.539080
    12  C   -0.432691
    13  H    0.126849
    14  H    0.131535
    15  H    0.133366
    16  H    0.147971
    17  H    0.126846
    18  H    0.131534
    19  H    0.133366
    20  H    0.147973
    21  Cl   0.379274
    22  Cl   0.379305
 Sum of Mulliken charges =  -0.00000

 Dipole moment (field-independent basis, Debye):
    X=              0.0000    Y=              2.1641    Z=             -0.0002  Tot=              2.1641
 Quadrupole moment (field-independent basis, Debye-Ang):
   XX=            -79.8075   YY=            -94.2467   ZZ=            -97.4773
   XY=             -0.0004   XZ=             -3.0820   YZ=             -0.0008

 1\1\GINC-DAMODAR\FOpt\RB3LYP\6-311+G(d,p)\C12H8Cl2\PKC\14-Mar-2022\0\\
 # opt b3lyp/6-311+g(d,p) scf=xqc\\Title Card Required\\0,1\C,-0.985711
 7139,0.1186433538,0.0563187232\C,0.3440668711,0.1030345769,0.495771569
 4\C,1.1034277429,1.2676782928,0.5531524958\C,0.5393436999,2.4807673534
 ,0.1651580885\C,-0.7782462732,2.5241396355,-0.2806782715\C,-1.52548479
 06,1.3504216922,-0.3316636023\C,-1.7575580619,-1.1566656439,-0.0116446
 301\C,-1.5900460475,-2.0123127125,-1.1077582206\C,-2.2754935179,-3.219
 9670436,-1.1974405753\C,-3.1480658928,-3.5970948983,-0.1792357734\C,-3

 Normal termination of Gaussian 16 at Mon Mar 14 22:42:48 2022.
