 Gaussian 16, Revision B.01,
 Gaussian 16:  EM64L-G16RevB.01 20-Dec-2017

 --------------------------------
 # opt b3lyp/6-311+g(d,p) scf=xqc
 --------------------------------

 -------------------
 Title Card Required
 -------------------
 Symbolic Z-matrix:
 Charge =  0 Multiplicity = 1

 SCF Done:  E(RB3LYP) =  -3677.51980346     A.U. after   19 cycles
 SCF Done:  E(RB3LYP) =  -3678.45437070     A.U. after   17 cycles
 SCF Done:  E(RB3LYP) =  -3679.47648377     A.U. after   18 cycles
 SCF Done:  E(RB3LYP) =  -3680.03518611     A.U. after   23 cycles
 SCF Done:  E(RB3LYP) =  -3680.20545824     A.U. after   26 cycles
 SCF Done:  E(RB3LYP) =  -3680.26860390     A.U. after   26 cycles
 SCF Done:  E(RB3LYP) =  -3680.36049268     A.U. after   19 cycles
 SCF Done:  E(RB3LYP) =  -3680.43286378     A.U. after   17 cycles
 SCF Done:  E(RB3LYP) =  -3680.48565613     A.U. after   16 cycles
 SCF Done:  E(RB3LYP) =  -3680.53681009     A.U. after   15 cycles
 SCF Done:  E(RB3LYP) =  -3680.74678744     A.U. after   14 cycles
 SCF Done:  E(RB3LYP) =  -3680.74800122     A.U. after   14 cycles
 SCF Done:  E(RB3LYP) =  -3680.74904667     A.U. after   14 cycles
 SCF Done:  E(RB3LYP) =  -3680.75037228     A.U. after   15 cycles
 SCF Done:  E(RB3LYP) =  -3680.75141825     A.U. after   16 cycles
 SCF Done:  E(RB3LYP) =  -3680.75187056     A.U. after   14 cycles
 SCF Done:  E(RB3LYP) =  -3680.75207300     A.U. after   14 cycles
 SCF Done:  E(RB3LYP) =  -3680.75208394     A.U. after   13 cycles
 SCF Done:  E(RB3LYP) =  -3680.75208577     A.U. after   11 cycles
 SCF Done:  E(RB3LYP) =  -3680.75208606     A.U. after   10 cycles
 Optimization completed.
    -- Stationary point found.

                         Standard orientation:
 ---------------------------------------------------------------------
 Center     Atomic      Atomic             Coordinates (Angstroms)
 Number     Number       Type             X           Y           Z
 ---------------------------------------------------------------------
      1          6           0        0.918412   -0.000244    0.000653
      2          6           0        1.652585    0.000588   -1.192297
      3          6           0        3.042624    0.000155   -1.212429
      4          6           0        3.721116   -0.000739   -0.000153
      5          6           0        3.043255   -0.000897    1.212524
      6          6           0        1.653219   -0.000507    1.193301
      7          6           0       -0.572730   -0.000439    0.000705
      8          6           0       -1.283180    1.208599    0.000590
      9          6           0       -2.681203    1.204365    0.000951
     10          6           0       -3.373040    0.000118    0.001032
     11          6           0       -2.681649   -1.204337    0.000250
     12          6           0       -1.283556   -1.209226   -0.000115
     13          1           0        3.578226    0.000698   -2.151013
     14          1           0        3.579475   -0.001223    2.150754
     15          1           0       -4.454167    0.000324    0.001414
     16         17           0       -0.408636   -2.714830   -0.002676
     17         17           0        0.812571    0.000274    2.729450
     18         17           0       -3.600370   -2.685685   -0.000323
     19         17           0        5.472252   -0.001349   -0.000571
     20         17           0       -3.599355    2.686041    0.001192
     21         17           0       -0.407115    2.713435   -0.001202
     22         17           0        0.810734    0.003031   -2.727707
 ---------------------------------------------------------------------

 The electronic state is 1-A.
 Alpha  occ. eigenvalues -- -101.57969-101.57968-101.57962-101.57961-101.57787
 Alpha  occ. eigenvalues -- -101.57786-101.57767 -10.27921 -10.27918 -10.27693
 Alpha  occ. eigenvalues --  -10.27693 -10.27654 -10.27652 -10.27381 -10.24616
 Alpha  occ. eigenvalues --  -10.23932 -10.22758 -10.22031 -10.22030  -9.49437
 Alpha  occ. eigenvalues --   -9.49436  -9.49425  -9.49425  -9.49259  -9.49258
 Alpha  occ. eigenvalues --   -9.49220  -7.25926  -7.25926  -7.25918  -7.25917
 Alpha  occ. eigenvalues --   -7.25734  -7.25733  -7.25696  -7.24915  -7.24914
 Alpha  occ. eigenvalues --   -7.24901  -7.24900  -7.24847  -7.24846  -7.24843
 Alpha  occ. eigenvalues --   -7.24842  -7.24737  -7.24736  -7.24698  -7.24689
 Alpha  occ. eigenvalues --   -7.24688  -7.24657  -0.96470  -0.94422  -0.92213
 Alpha  occ. eigenvalues --   -0.90433  -0.90137  -0.88914  -0.87895  -0.84428
 Alpha  occ. eigenvalues --   -0.83724  -0.80238  -0.76937  -0.75435  -0.74386
 Alpha  occ. eigenvalues --   -0.67209  -0.64138  -0.62586  -0.62330  -0.55687
 Alpha  occ. eigenvalues --   -0.55157  -0.53883  -0.53183  -0.49824  -0.48645
 Alpha  occ. eigenvalues --   -0.47163  -0.47137  -0.46924  -0.45947  -0.45011
 Alpha  occ. eigenvalues --   -0.43942  -0.42575  -0.41649  -0.41476  -0.41119
 Alpha  occ. eigenvalues --   -0.38818  -0.38697  -0.37778  -0.36099  -0.35763
 Alpha  occ. eigenvalues --   -0.34776  -0.34546  -0.34517  -0.33484  -0.33406
 Alpha  occ. eigenvalues --   -0.33248  -0.32909  -0.32679  -0.28389  -0.27811
 Alpha  occ. eigenvalues --   -0.27679  -0.26594
 Alpha virt. eigenvalues --   -0.06499  -0.06118  -0.05915  -0.05390  -0.04546
 Alpha virt. eigenvalues --   -0.03045  -0.00922  -0.00534   0.00384   0.01024
 Alpha virt. eigenvalues --    0.01101   0.01385   0.01992   0.02709   0.03034

 Mulliken charges:
               1
     1  C   -0.219346
     2  C   -0.778394
     3  C   -0.302613
     4  C    0.711306
     5  C   -0.308700
     6  C   -0.778209
     7  C   -0.413476
     8  C   -1.417241
     9  C    0.719694
    10  C   -0.344642
    11  C    0.714613
    12  C   -1.411341
    13  H    0.168707
    14  H    0.168730
    15  H    0.173993
    16  Cl   0.560730
    17  Cl   0.369456
    18  Cl   0.505594
    19  Cl   0.444233
    20  Cl   0.505478
    21  Cl   0.560973
    22  Cl   0.370454
 Sum of Mulliken charges =  -0.00000

 Dipole moment (field-independent basis, Debye):
    X=              0.1443    Y=              0.0003    Z=              0.0001  Tot=              0.1443
 Quadrupole moment (field-independent basis, Debye-Ang):
   XX=           -150.5512   YY=           -161.0842   ZZ=           -156.1154
   XY=             -0.0016   XZ=             -0.0038   YZ=             -0.0021

 Normal termination of Gaussian 16 at Fri Mar 25 21:49:06 2022.
