 Gaussian 16, Revision B.01,
 Gaussian 16:  EM64L-G16RevB.01 20-Dec-2017

 --------------------------------
 # opt b3lyp/6-311+g(d,p) scf=xqc
 --------------------------------

 -------------------
 Title Card Required
 -------------------
 Symbolic Z-matrix:
 Charge =  0 Multiplicity = 1

 SCF Done:  E(RB3LYP) =  -2300.28083745     A.U. after   19 cycles
 SCF Done:  E(RB3LYP) =  -2300.78886558     A.U. after   15 cycles
 SCF Done:  E(RB3LYP) =  -2301.32179842     A.U. after   17 cycles
 SCF Done:  E(RB3LYP) =  -2301.59085118     A.U. after   17 cycles
 SCF Done:  E(RB3LYP) =  -2301.60873754     A.U. after   26 cycles
 SCF Done:  E(RB3LYP) =  -2301.64299155     A.U. after   18 cycles
 SCF Done:  E(RB3LYP) =  -2301.66802712     A.U. after   19 cycles
 SCF Done:  E(RB3LYP) =  -2301.68402993     A.U. after   17 cycles
 SCF Done:  E(RB3LYP) =  -2301.72136873     A.U. after   19 cycles
 SCF Done:  E(RB3LYP) =  -2301.75198554     A.U. after   15 cycles
 SCF Done:  E(RB3LYP) =  -2301.90362808     A.U. after   13 cycles
 SCF Done:  E(RB3LYP) =  -2301.90381715     A.U. after   14 cycles
 SCF Done:  E(RB3LYP) =  -2301.90399811     A.U. after   14 cycles
 SCF Done:  E(RB3LYP) =  -2301.90411603     A.U. after   13 cycles
 SCF Done:  E(RB3LYP) =  -2301.90425166     A.U. after   14 cycles
 SCF Done:  E(RB3LYP) =  -2301.90427895     A.U. after   13 cycles
 SCF Done:  E(RB3LYP) =  -2301.90428307     A.U. after   12 cycles
 SCF Done:  E(RB3LYP) =  -2301.90428482     A.U. after   12 cycles
 SCF Done:  E(RB3LYP) =  -2301.90428541     A.U. after   12 cycles
 SCF Done:  E(RB3LYP) =  -2301.90428553     A.U. after   11 cycles
 Optimization completed.
    -- Stationary point found.

                         Standard orientation:
 ---------------------------------------------------------------------
 Center     Atomic      Atomic             Coordinates (Angstroms)
 Number     Number       Type             X           Y           Z
 ---------------------------------------------------------------------
      1          6           0       -0.745385   -0.403673   -0.022456
      2          6           0       -1.419669   -1.317499   -0.840422
      3          6           0       -2.808265   -1.366308   -0.899446
      4          6           0       -3.542786   -0.479818   -0.119596
      5          6           0       -2.915017    0.441235    0.710109
      6          6           0       -1.523489    0.467546    0.748763
      7          6           0        0.745376   -0.403683    0.022370
      8          6           0        1.419646   -1.317640    0.840200
      9          6           0        2.808243   -1.366458    0.899235
     10          6           0        3.542773   -0.479863    0.119515
     11          6           0        2.915018    0.441336   -0.710040
     12          6           0        1.523492    0.467663   -0.748695
     13          1           0       -0.837403   -1.999574   -1.448990
     14          1           0       -3.311361   -2.077845   -1.540760
     15          1           0       -3.492309    1.124867    1.316870
     16          1           0        0.837374   -1.999809    1.448659
     17          1           0        3.311329   -2.078092    1.540448
     18          1           0        3.492318    1.125067   -1.316684
     19         17           0        0.754627    1.632714   -1.811984
     20         17           0       -0.754590    1.632430    1.812208
     21         17           0        5.296553   -0.520578    0.175910
     22         17           0       -5.296564   -0.520544   -0.175943
 ---------------------------------------------------------------------

 The electronic state is 1-A.
 Alpha  occ. eigenvalues -- -101.56855-101.56855-101.56758-101.56758 -10.26315
 Alpha  occ. eigenvalues --  -10.26314 -10.26109 -10.26109 -10.22181 -10.22152
 Alpha  occ. eigenvalues --  -10.21161 -10.21161 -10.21044 -10.21044 -10.20722
 Alpha  occ. eigenvalues --  -10.20722  -9.48310  -9.48309  -9.48229  -9.48229
 Alpha  occ. eigenvalues --   -7.24776  -7.24776  -7.24695  -7.24695  -7.23791
 Alpha  occ. eigenvalues --   -7.23791  -7.23754  -7.23754  -7.23712  -7.23712
 Alpha  occ. eigenvalues --   -7.23664  -7.23664  -0.93422  -0.92116  -0.89304
 Alpha  occ. eigenvalues --   -0.88615  -0.85240  -0.84088  -0.79271  -0.77029
 Alpha  occ. eigenvalues --   -0.76622  -0.73306  -0.65008  -0.64186  -0.63383
 Alpha  occ. eigenvalues --   -0.60554  -0.55715  -0.51837  -0.51659  -0.51101
 Alpha  occ. eigenvalues --   -0.48940  -0.47973  -0.45835  -0.45792  -0.45583
 Alpha  occ. eigenvalues --   -0.42978  -0.42910  -0.41924  -0.39793  -0.39658
 Alpha  occ. eigenvalues --   -0.38743  -0.37910  -0.37437  -0.34099  -0.33687
 Alpha  occ. eigenvalues --   -0.33414  -0.33372  -0.32805  -0.32784  -0.27940
 Alpha  occ. eigenvalues --   -0.27915  -0.26831  -0.26354
 Alpha virt. eigenvalues --   -0.05439  -0.04935  -0.04192  -0.03967  -0.01753
 Alpha virt. eigenvalues --   -0.01265  -0.00429   0.00827   0.01603   0.01759
 Alpha virt. eigenvalues --    0.01856   0.01901   0.03416   0.03759   0.04604

 Mulliken charges:
               1
     1  C    0.551487
     2  C   -0.535428
     3  C   -0.707996
     4  C    0.889597
     5  C   -0.418134
     6  C   -0.992863
     7  C    0.551467
     8  C   -0.535422
     9  C   -0.708020
    10  C    0.889595
    11  C   -0.418116
    12  C   -0.992838
    13  H    0.134661
    14  H    0.153812
    15  H    0.170557
    16  H    0.134662
    17  H    0.153812
    18  H    0.170558
    19  Cl   0.355001
    20  Cl   0.355002
    21  Cl   0.399304
    22  Cl   0.399304
 Sum of Mulliken charges =  -0.00000

 Dipole moment (field-independent basis, Debye):
    X=             -0.0000    Y=             -1.8900    Z=             -0.0001  Tot=              1.8900
 Quadrupole moment (field-independent basis, Debye-Ang):
   XX=           -127.7004   YY=           -116.6151   ZZ=           -119.4877
   XY=              0.0001   XZ=              0.7187   YZ=              0.0002

 1\1\GINC-DAMODAR\FOpt\RB3LYP\6-311+G(d,p)\C12H6Cl4\PKC\15-Mar-2022\0\\
 # opt b3lyp/6-311+g(d,p) scf=xqc\\Title Card Required\\0,1\C,-0.018281
 9053,-0.8817645946,0.0524173125\C,1.3064591321,-0.8852138504,0.5039194
 923\C,2.0672144489,0.2776066535,0.5601707645\C,1.4898669738,1.47535528
 5,0.153206557\C,0.1793518792,1.5245222703,-0.3061147676\C,-0.558618236
 9,0.3447360395,-0.3512898776\C,-0.7870872185,-2.1582946505,-0.00912792
 74\C,-0.6332772637,-3.0142118042,-1.105737272\C,-1.3150648391,-4.22293
 2044,-1.1964621231\C,-2.1720195886,-4.5870270364,-0.163693462\C,-2.351

 Normal termination of Gaussian 16 at Tue Mar 15 18:01:53 2022.
