 Gaussian 16, Revision B.01,
 Gaussian 16:  EM64L-G16RevB.01 20-Dec-2017

 --------------------------------
 # opt b3lyp/6-311+g(d,p) scf=xqc
 --------------------------------

 -------------------
 Title Card Required
 -------------------
 Symbolic Z-matrix:
 Charge =  0 Multiplicity = 1

 SCF Done:  E(RB3LYP) =  -4139.52265227     A.U. after   24 cycles
 SCF Done:  E(RB3LYP) =  -4139.69584898     A.U. after   16 cycles
 SCF Done:  E(RB3LYP) =  -4139.91193558     A.U. after   17 cycles
 SCF Done:  E(RB3LYP) =  -4140.04940155     A.U. after   17 cycles
 SCF Done:  E(RB3LYP) =  -4140.06412792     A.U. after   17 cycles
 SCF Done:  E(RB3LYP) =  -4140.10593604     A.U. after   16 cycles
 SCF Done:  E(RB3LYP) =  -4140.13183029     A.U. after   15 cycles
 SCF Done:  E(RB3LYP) =  -4140.14114075     A.U. after   15 cycles
 SCF Done:  E(RB3LYP) =  -4140.14872977     A.U. after   14 cycles
 SCF Done:  E(RB3LYP) =  -4140.15771322     A.U. after   16 cycles
 SCF Done:  E(RB3LYP) =  -4140.36217575     A.U. after   11 cycles
 SCF Done:  E(RB3LYP) =  -4140.36217635     A.U. after   11 cycles
 SCF Done:  E(RB3LYP) =  -4140.36217659     A.U. after   10 cycles
 SCF Done:  E(RB3LYP) =  -4140.36217676     A.U. after    9 cycles
 SCF Done:  E(RB3LYP) =  -4140.36217710     A.U. after   10 cycles
 SCF Done:  E(RB3LYP) =  -4140.36217772     A.U. after   10 cycles
 SCF Done:  E(RB3LYP) =  -4140.36217900     A.U. after   10 cycles
 SCF Done:  E(RB3LYP) =  -4140.36218083     A.U. after   10 cycles
 SCF Done:  E(RB3LYP) =  -4140.36218193     A.U. after   11 cycles
 SCF Done:  E(RB3LYP) =  -4140.36218234     A.U. after   10 cycles
 Optimization completed.
    -- Stationary point found.

                         Standard orientation:
 ---------------------------------------------------------------------
 Center     Atomic      Atomic             Coordinates (Angstroms)
 Number     Number       Type             X           Y           Z
 ---------------------------------------------------------------------
      1          6           0        1.303913   -0.000131    0.000032
      2          6           0        2.038243    0.000177   -1.192921
      3          6           0        3.428216    0.000353   -1.212548
      4          6           0        4.106507    0.000051   -0.000070
      5          6           0        3.428345   -0.000405    1.212488
      6          6           0        2.038390   -0.000420    1.192849
      7          6           0       -0.186573   -0.000015   -0.000101
      8          6           0       -0.901111    1.203003    0.000177
      9          6           0       -2.300601    1.215161    0.000155
     10          6           0       -2.999937    0.000180   -0.000188
     11          6           0       -2.300751   -1.214899   -0.000370
     12          6           0       -0.901240   -1.202955   -0.000289
     13          1           0        3.964042    0.000630   -2.151008
     14          1           0        3.964231   -0.000604    2.150908
     15         17           0       -0.019017   -2.704247    0.000331
     16         17           0        1.196895   -0.001009    2.728328
     17         17           0       -3.164652   -2.719499   -0.000641
     18         17           0       -4.734884    0.000333   -0.000243
     19         17           0        5.857377    0.000221   -0.000168
     20         17           0       -3.164235    2.719923    0.000673
     21         17           0       -0.018361    2.703879    0.000507
     22         17           0        1.196954    0.000362   -2.728504
 ---------------------------------------------------------------------

 The electronic state is 1-A.
 Alpha  occ. eigenvalues -- -101.58483-101.58360-101.58360-101.58305-101.58305
 Alpha  occ. eigenvalues -- -101.57970-101.57969-101.57907 -10.28906 -10.28559
 Alpha  occ. eigenvalues --  -10.28554 -10.28468 -10.28468 -10.27830 -10.27830
 Alpha  occ. eigenvalues --  -10.27548 -10.24796 -10.24138 -10.22198 -10.22197
 Alpha  occ. eigenvalues --   -9.49950  -9.49826  -9.49826  -9.49783  -9.49782
 Alpha  occ. eigenvalues --   -9.49443  -9.49441  -9.49360  -7.26459  -7.26335
 Alpha  occ. eigenvalues --   -7.26334  -7.26277  -7.26277  -7.25917  -7.25916
 Alpha  occ. eigenvalues --   -7.25836  -7.25431  -7.25338  -7.25304  -7.25304
 Alpha  occ. eigenvalues --   -7.25260  -7.25260  -7.25219  -7.25218  -7.25187
 Alpha  occ. eigenvalues --   -7.25187  -7.24920  -7.24918  -7.24873  -7.24872
 Alpha  occ. eigenvalues --   -7.24838  -7.24796  -0.97581  -0.94994  -0.92898
 Alpha  occ. eigenvalues --   -0.91807  -0.90322  -0.90042  -0.88366  -0.87243
 Alpha  occ. eigenvalues --   -0.84485  -0.83889  -0.80081  -0.77111  -0.74941
 Alpha  occ. eigenvalues --   -0.74733  -0.66348  -0.64319  -0.63650  -0.62320
 Alpha  occ. eigenvalues --   -0.56621  -0.56036  -0.54077  -0.52762  -0.49950
 Alpha  occ. eigenvalues --   -0.49023  -0.47683  -0.47532  -0.47249  -0.47077
 Alpha  occ. eigenvalues --   -0.45441  -0.44875  -0.43404  -0.42053  -0.41915
 Alpha  occ. eigenvalues --   -0.41641  -0.39701  -0.39057  -0.38876  -0.36418
 Alpha  occ. eigenvalues --   -0.36234  -0.36226  -0.35857  -0.34820  -0.34738
 Alpha  occ. eigenvalues --   -0.34668  -0.33685  -0.33636  -0.33182  -0.32939
 Alpha  occ. eigenvalues --   -0.31809  -0.27987  -0.27846  -0.27823  -0.27037
 Alpha virt. eigenvalues --   -0.06823  -0.06587  -0.06201  -0.06100  -0.05746
 Alpha virt. eigenvalues --   -0.03476  -0.01119  -0.00695   0.00043   0.00892
 Alpha virt. eigenvalues --    0.00922   0.01361   0.01862   0.02158   0.02512

 Mulliken charges:
               1
     1  C    0.098618
     2  C   -0.890423
     3  C   -0.284630
     4  C    0.680118
     5  C   -0.284229
     6  C   -0.889843
     7  C   -0.623676
     8  C   -1.638979
     9  C    0.160581
    10  C    0.465715
    11  C    0.161348
    12  C   -1.639168
    13  H    0.168901
    14  H    0.168896
    15  Cl   0.598058
    16  Cl   0.374745
    17  Cl   0.640713
    18  Cl   0.674457
    19  Cl   0.445637
    20  Cl   0.640680
    21  Cl   0.598024
    22  Cl   0.374457
 Sum of Mulliken charges =  -0.00000

 Dipole moment (field-independent basis, Debye):
    X=              1.0489    Y=              0.0003    Z=             -0.0001  Tot=              1.0489
 Quadrupole moment (field-independent basis, Debye-Ang):
   XX=           -166.7609   YY=           -170.6203   ZZ=           -167.5971
   XY=              0.0003   XZ=              0.0008   YZ=             -0.0013

 Normal termination of Gaussian 16 at Thu Apr 14 18:14:27 2022.
