 Gaussian 16, Revision B.01,
 Gaussian 16:  EM64L-G16RevB.01 20-Dec-2017

 --------------------------------
 # opt b3lyp/6-311+g(d,p) scf=xqc
 --------------------------------

 -------------------
 Title Card Required
 -------------------
 Symbolic Z-matrix:
 Charge =  0 Multiplicity = 1

 SCF Done:  E(RB3LYP) =  -3680.18407282     A.U. after   27 cycles
 SCF Done:  E(RB3LYP) =  -3680.27356876     A.U. after   22 cycles
 SCF Done:  E(RB3LYP) =  -3680.41034320     A.U. after   19 cycles
 SCF Done:  E(RB3LYP) =  -3680.12222004     A.U. after   20 cycles
 SCF Done:  E(RB3LYP) =  -3680.50329774     A.U. after   17 cycles
 SCF Done:  E(RB3LYP) =  -3680.55927711     A.U. after   16 cycles
 SCF Done:  E(RB3LYP) =  -3680.52674969     A.U. after   18 cycles
 SCF Done:  E(RB3LYP) =  -3680.62279725     A.U. after   15 cycles
 SCF Done:  E(RB3LYP) =  -3680.63673404     A.U. after   18 cycles
 SCF Done:  E(RB3LYP) =  -3680.64237880     A.U. after   15 cycles
 SCF Done:  E(RB3LYP) =  -3680.74554155     A.U. after   11 cycles
 SCF Done:  E(RB3LYP) =  -3680.74554289     A.U. after   11 cycles
 SCF Done:  E(RB3LYP) =  -3680.74554378     A.U. after   11 cycles
 SCF Done:  E(RB3LYP) =  -3680.74554460     A.U. after   11 cycles
 SCF Done:  E(RB3LYP) =  -3680.74554557     A.U. after   11 cycles
 SCF Done:  E(RB3LYP) =  -3680.74554697     A.U. after   11 cycles
 SCF Done:  E(RB3LYP) =  -3680.74554942     A.U. after   12 cycles
 SCF Done:  E(RB3LYP) =  -3680.74555176     A.U. after   11 cycles
 SCF Done:  E(RB3LYP) =  -3680.74555365     A.U. after   11 cycles
 SCF Done:  E(RB3LYP) =  -3680.74555401     A.U. after   11 cycles
 Optimization completed.
    -- Stationary point found.

                         Standard orientation:
 ---------------------------------------------------------------------
 Center     Atomic      Atomic             Coordinates (Angstroms)
 Number     Number       Type             X           Y           Z
 ---------------------------------------------------------------------
      1          6           0        0.874623   -0.000050    0.310294
      2          6           0        1.583304    1.208495    0.235300
      3          6           0        2.973900    1.204038    0.085014
      4          6           0        3.661897    0.000085    0.010868
      5          6           0        2.973887   -1.204048    0.084772
      6          6           0        1.583467   -1.208747    0.235136
      7          6           0       -0.607152   -0.000092    0.496908
      8          6           0       -1.139599   -0.000244    1.786237
      9          6           0       -2.510602   -0.000290    1.993538
     10          6           0       -3.375925   -0.000203    0.904391
     11          6           0       -2.873583    0.000001   -0.403038
     12          6           0       -1.482852    0.000068   -0.594253
     13          1           0        4.736760   -0.000034   -0.105198
     14          1           0       -0.468148   -0.000273    2.636086
     15          1           0       -2.918846   -0.000387    2.995382
     16         17           0       -0.824566    0.000516   -2.209308
     17         17           0        0.715182   -2.716563    0.323929
     18         17           0       -3.952620    0.000229   -1.763500
     19         17           0        3.887999   -2.685190   -0.012079
     20         17           0       -5.094517   -0.000304    1.207204
     21         17           0        3.887789    2.685326   -0.011308
     22         17           0        0.714970    2.716375    0.324047
 ---------------------------------------------------------------------

 The electronic state is 1-A.
 Alpha  occ. eigenvalues -- -101.58114-101.58114-101.58058-101.58057-101.57660
 Alpha  occ. eigenvalues -- -101.57643-101.57569 -10.28043 -10.28042 -10.27850
 Alpha  occ. eigenvalues --  -10.27849 -10.27653 -10.27594 -10.27302 -10.24635
 Alpha  occ. eigenvalues --  -10.23395 -10.22879 -10.21685 -10.21602  -9.49571
 Alpha  occ. eigenvalues --   -9.49570  -9.49531  -9.49529  -9.49138  -9.49108
 Alpha  occ. eigenvalues --   -9.49028  -7.26063  -7.26063  -7.26021  -7.26020
 Alpha  occ. eigenvalues --   -7.25623  -7.25609  -7.25514  -7.25047  -7.25046
 Alpha  occ. eigenvalues --   -7.25011  -7.25010  -7.24988  -7.24987  -7.24938
 Alpha  occ. eigenvalues --   -7.24937  -7.24619  -7.24590  -7.24551  -7.24509
 Alpha  occ. eigenvalues --   -7.24506  -7.24446  -0.96459  -0.94981  -0.92330
 Alpha  occ. eigenvalues --   -0.90554  -0.89372  -0.88006  -0.87607  -0.85551
 Alpha  occ. eigenvalues --   -0.84347  -0.79791  -0.76330  -0.75196  -0.74504
 Alpha  occ. eigenvalues --   -0.67400  -0.64264  -0.62677  -0.62150  -0.55222
 Alpha  occ. eigenvalues --   -0.55207  -0.53557  -0.53131  -0.49932  -0.48520
 Alpha  occ. eigenvalues --   -0.47245  -0.47012  -0.46765  -0.46039  -0.45266
 Alpha  occ. eigenvalues --   -0.43986  -0.42843  -0.41453  -0.41182  -0.41135
 Alpha  occ. eigenvalues --   -0.38693  -0.37854  -0.36641  -0.36399  -0.35899
 Alpha  occ. eigenvalues --   -0.35211  -0.34902  -0.34436  -0.34180  -0.33505
 Alpha  occ. eigenvalues --   -0.33205  -0.32807  -0.31949  -0.28519  -0.27484
 Alpha  occ. eigenvalues --   -0.27251  -0.26748
 Alpha virt. eigenvalues --   -0.06562  -0.06187  -0.05722  -0.05124  -0.04677
 Alpha virt. eigenvalues --   -0.03490  -0.01036  -0.00795   0.00273   0.01190
 Alpha virt. eigenvalues --    0.01410   0.02043   0.02359   0.02583   0.02882

 Mulliken charges:
               1
     1  C   -0.392255
     2  C   -1.307775
     3  C    0.725722
     4  C   -0.410526
     5  C    0.725877
     6  C   -1.307783
     7  C   -0.082266
     8  C   -0.364013
     9  C   -1.031215
    10  C    0.459896
    11  C    0.385296
    12  C   -1.571338
    13  H    0.173624
    14  H    0.135224
    15  H    0.158512
    16  Cl   0.504802
    17  Cl   0.551267
    18  Cl   0.587938
    19  Cl   0.497511
    20  Cl   0.512717
    21  Cl   0.497512
    22  Cl   0.551275
 Sum of Mulliken charges =  -0.00000

 Dipole moment (field-independent basis, Debye):
    X=              1.1998    Y=             -0.0003    Z=              1.8443  Tot=              2.2002
 Quadrupole moment (field-independent basis, Debye-Ang):
   XX=           -156.3325   YY=           -161.2161   ZZ=           -152.0789
   XY=              0.0010   XZ=             -3.2770   YZ=             -0.0012

 Normal termination of Gaussian 16 at Sun Apr  3 03:33:46 2022.
