 Gaussian 16, Revision B.01,
 Gaussian 16:  EM64L-G16RevB.01 20-Dec-2017

 --------------------------------
 # opt b3lyp/6-311+g(d,p) scf=xqc
 --------------------------------

 -------------------
 Title Card Required
 -------------------
 Symbolic Z-matrix:
 Charge =  0 Multiplicity = 1

 SCF Done:  E(RB3LYP) =  -3220.57079761     A.U. after   26 cycles
 SCF Done:  E(RB3LYP) =  -3220.68034517     A.U. after   20 cycles
 SCF Done:  E(RB3LYP) =  -3220.77588053     A.U. after   20 cycles
 SCF Done:  E(RB3LYP) =  -3220.78869709     A.U. after   20 cycles
 SCF Done:  E(RB3LYP) =  -3220.85381940     A.U. after   19 cycles
 SCF Done:  E(RB3LYP) =  -3220.75832777     A.U. after   19 cycles
 SCF Done:  E(RB3LYP) =  -3220.88614555     A.U. after   17 cycles
 SCF Done:  E(RB3LYP) =  -3220.92219031     A.U. after   16 cycles
 SCF Done:  E(RB3LYP) =  -3220.97358266     A.U. after   15 cycles
 SCF Done:  E(RB3LYP) =  -3221.01969504     A.U. after   17 cycles
 SCF Done:  E(RB3LYP) =  -3221.13467768     A.U. after   14 cycles
 SCF Done:  E(RB3LYP) =  -3221.13473432     A.U. after   14 cycles
 SCF Done:  E(RB3LYP) =  -3221.13475921     A.U. after   14 cycles
 SCF Done:  E(RB3LYP) =  -3221.13478611     A.U. after   12 cycles
 SCF Done:  E(RB3LYP) =  -3221.13479339     A.U. after   13 cycles
 SCF Done:  E(RB3LYP) =  -3221.13479767     A.U. after   12 cycles
 SCF Done:  E(RB3LYP) =  -3221.13480254     A.U. after   13 cycles
 SCF Done:  E(RB3LYP) =  -3221.13480312     A.U. after   11 cycles
 SCF Done:  E(RB3LYP) =  -3221.13480321     A.U. after   10 cycles
 SCF Done:  E(RB3LYP) =  -3221.13480327     A.U. after   11 cycles
 Optimization completed.
    -- Stationary point found.

                         Standard orientation:
 ---------------------------------------------------------------------
 Center     Atomic      Atomic             Coordinates (Angstroms)
 Number     Number       Type             X           Y           Z
 ---------------------------------------------------------------------
      1          6           0        0.360043    0.187215    0.021157
      2          6           0        1.180816   -0.207715   -1.035473
      3          6           0        2.545921   -0.409674   -0.859732
      4          6           0        3.114153   -0.213771    0.402413
      5          6           0        2.311166    0.180583    1.468611
      6          6           0        0.949790    0.377736    1.274488
      7          6           0       -1.097603    0.398405   -0.215093
      8          6           0       -1.595468    1.644938   -0.611753
      9          6           0       -2.950489    1.850800   -0.847441
     10          6           0       -3.839320    0.798030   -0.688350
     11          6           0       -3.379746   -0.455692   -0.295897
     12          6           0       -2.015446   -0.655500   -0.060647
     13          1           0        0.749797   -0.361837   -2.016283
     14          1           0        2.750344    0.332403    2.444808
     15          1           0       -3.304138    2.826777   -1.151841
     16          1           0       -4.896692    0.942851   -0.867760
     17         17           0       -1.431019   -2.222030    0.434821
     18         17           0       -0.021982    0.873366    2.644580
     19         17           0       -4.536238   -1.749599   -0.110969
     20         17           0        4.818272   -0.450862    0.684728
     21         17           0        3.507215   -0.903182   -2.229251
     22         17           0       -0.501084    2.998640   -0.819357
 ---------------------------------------------------------------------

 The electronic state is 1-A.
 Alpha  occ. eigenvalues -- -101.57695-101.57584-101.57557-101.57495-101.57408
 Alpha  occ. eigenvalues -- -101.57346 -10.27723 -10.27262 -10.27110 -10.27066
 Alpha  occ. eigenvalues --  -10.26899 -10.26852 -10.23954 -10.23251 -10.22104
 Alpha  occ. eigenvalues --  -10.22018 -10.21999 -10.21784  -9.49169  -9.49042
 Alpha  occ. eigenvalues --   -9.49013  -9.48964  -9.48864  -9.48816  -7.25656
 Alpha  occ. eigenvalues --   -7.25528  -7.25501  -7.25436  -7.25351  -7.25287
 Alpha  occ. eigenvalues --   -7.24653  -7.24578  -7.24520  -7.24493  -7.24463
 Alpha  occ. eigenvalues --   -7.24445  -7.24433  -7.24395  -7.24341  -7.24293
 Alpha  occ. eigenvalues --   -7.24287  -7.24251  -0.95418  -0.94128  -0.90967
 Alpha  occ. eigenvalues --   -0.90241  -0.88315  -0.87884  -0.84736  -0.84389
 Alpha  occ. eigenvalues --   -0.80488  -0.76752  -0.74930  -0.74023  -0.67003
 Alpha  occ. eigenvalues --   -0.65077  -0.62993  -0.60979  -0.55163  -0.53499
 Alpha  occ. eigenvalues --   -0.53455  -0.52795  -0.49828  -0.48427  -0.46818
 Alpha  occ. eigenvalues --   -0.46536  -0.46428  -0.44799  -0.44690  -0.43268
 Alpha  occ. eigenvalues --   -0.41598  -0.41266  -0.40645  -0.39730  -0.38879
 Alpha  occ. eigenvalues --   -0.36830  -0.36656  -0.35091  -0.34739  -0.33997
 Alpha  occ. eigenvalues --   -0.33626  -0.33571  -0.33288  -0.32690  -0.32520
 Alpha  occ. eigenvalues --   -0.28664  -0.28308  -0.26649  -0.26404
 Alpha virt. eigenvalues --   -0.06033  -0.05864  -0.05422  -0.04855  -0.03511
 Alpha virt. eigenvalues --   -0.02471  -0.00622  -0.00112   0.00283   0.01037
 Alpha virt. eigenvalues --    0.01711   0.02214   0.02514   0.02523   0.03395

 Mulliken charges:
               1
     1  C   -0.097972
     2  C   -0.812110
     3  C    0.095249
     4  C    0.094191
     5  C   -0.415989
     6  C   -1.197079
     7  C    0.013802
     8  C   -0.054122
     9  C   -0.364005
    10  C   -0.571308
    11  C    1.147744
    12  C   -1.349275
    13  H    0.150989
    14  H    0.171840
    15  H    0.157102
    16  H    0.159682
    17  Cl   0.549487
    18  Cl   0.379881
    19  Cl   0.479827
    20  Cl   0.502218
    21  Cl   0.541094
    22  Cl   0.418757
 Sum of Mulliken charges =  -0.00000

 Dipole moment (field-independent basis, Debye):
    X=             -1.7128    Y=              1.2319    Z=             -0.5317  Tot=              2.1758
 Quadrupole moment (field-independent basis, Debye-Ang):
   XX=           -141.4173   YY=           -145.9646   ZZ=           -143.5180
   XY=             -5.6572   XZ=              5.9592   YZ=             -1.1008

 Normal termination of Gaussian 16 at Mon Apr 25 13:27:50 2022.
