 Gaussian 16, Revision B.01,
 Gaussian 16:  EM64L-G16RevB.01 20-Dec-2017

 --------------------------------
 # opt b3lyp/6-311+g(d,p) scf=xqc
 --------------------------------

 -------------------
 Title Card Required
 -------------------
 Symbolic Z-matrix:
 Charge =  0 Multiplicity = 1

 SCF Done:  E(RB3LYP) =  -3680.18746037     A.U. after   29 cycles
 SCF Done:  E(RB3LYP) =  -3680.29338629     A.U. after   21 cycles
 SCF Done:  E(RB3LYP) =  -3680.37739261     A.U. after   19 cycles
 SCF Done:  E(RB3LYP) =  -3680.47351690     A.U. after   20 cycles
 SCF Done:  E(RB3LYP) =  -3679.77683734     A.U. after   21 cycles
 SCF Done:  E(RB3LYP) =  -3680.47705434     A.U. after   18 cycles
 SCF Done:  E(RB3LYP) =  -3680.49063567     A.U. after   15 cycles
 SCF Done:  E(RB3LYP) =  -3680.51010741     A.U. after   16 cycles
 SCF Done:  E(RB3LYP) =  -3680.53462895     A.U. after   16 cycles
 SCF Done:  E(RB3LYP) =  -3680.56903016     A.U. after   16 cycles
 SCF Done:  E(RB3LYP) =  -3680.74940319     A.U. after   11 cycles
 SCF Done:  E(RB3LYP) =  -3680.74940589     A.U. after   10 cycles
 SCF Done:  E(RB3LYP) =  -3680.74940777     A.U. after   11 cycles
 SCF Done:  E(RB3LYP) =  -3680.74940954     A.U. after   11 cycles
 SCF Done:  E(RB3LYP) =  -3680.74941191     A.U. after   12 cycles
 SCF Done:  E(RB3LYP) =  -3680.74941512     A.U. after   11 cycles
 SCF Done:  E(RB3LYP) =  -3680.74942346     A.U. after   12 cycles
 SCF Done:  E(RB3LYP) =  -3680.74942752     A.U. after   12 cycles
 SCF Done:  E(RB3LYP) =  -3680.74942994     A.U. after   11 cycles
 SCF Done:  E(RB3LYP) =  -3680.74943025     A.U. after   10 cycles
 Optimization completed.
    -- Stationary point found.

                         Standard orientation:
 ---------------------------------------------------------------------
 Center     Atomic      Atomic             Coordinates (Angstroms)
 Number     Number       Type             X           Y           Z
 ---------------------------------------------------------------------
      1          6           0        1.300795    0.184088    0.000298
      2          6           0        2.037769    0.192905    1.192764
      3          6           0        3.428201    0.213050    1.212759
      4          6           0        4.106920    0.225497    0.000740
      5          6           0        3.428480    0.219861   -1.211446
      6          6           0        2.038009    0.199586   -1.192016
      7          6           0       -0.190739    0.184530    0.000140
      8          6           0       -0.870806    1.398934    0.002714
      9          6           0       -2.258395    1.442173    0.002822
     10          6           0       -3.003398    0.257830    0.000490
     11          6           0       -2.329077   -0.974488   -0.002031
     12          6           0       -0.927870   -1.004682   -0.002276
     13          1           0        3.963815    0.218019    2.151346
     14          1           0        3.964249    0.230114   -2.149915
     15          1           0       -0.313175    2.325986    0.004715
     16         17           0       -0.081586   -2.527719   -0.005644
     17         17           0        1.200521    0.188371   -2.730689
     18         17           0       -3.233404   -2.456632   -0.004614
     19         17           0       -4.737671    0.311010    0.000845
     20         17           0        5.857741    0.250692    0.001011
     21         17           0       -3.039037    3.001738    0.005802
     22         17           0        1.199656    0.173138    2.731177
 ---------------------------------------------------------------------

 The electronic state is 1-A.
 Alpha  occ. eigenvalues -- -101.58052-101.58000-101.57959-101.57957-101.57955
 Alpha  occ. eigenvalues -- -101.57877-101.57861 -10.28262 -10.28204 -10.27863
 Alpha  occ. eigenvalues --  -10.27863 -10.27791 -10.27581 -10.27566 -10.24035
 Alpha  occ. eigenvalues --  -10.23894 -10.22298 -10.22254 -10.22253  -9.49515
 Alpha  occ. eigenvalues --   -9.49466  -9.49427  -9.49425  -9.49412  -9.49351
 Alpha  occ. eigenvalues --   -9.49317  -7.26019  -7.25971  -7.25902  -7.25900
 Alpha  occ. eigenvalues --   -7.25888  -7.25840  -7.25809  -7.24997  -7.24947
 Alpha  occ. eigenvalues --   -7.24910  -7.24907  -7.24905  -7.24890  -7.24860
 Alpha  occ. eigenvalues --   -7.24854  -7.24852  -7.24848  -7.24830  -7.24793
 Alpha  occ. eigenvalues --   -7.24762  -7.24735  -0.96496  -0.94866  -0.91737
 Alpha  occ. eigenvalues --   -0.90605  -0.90300  -0.89411  -0.86905  -0.85276
 Alpha  occ. eigenvalues --   -0.83882  -0.79836  -0.77131  -0.75767  -0.74316
 Alpha  occ. eigenvalues --   -0.66165  -0.64289  -0.64040  -0.61929  -0.55972
 Alpha  occ. eigenvalues --   -0.54916  -0.53998  -0.52795  -0.49842  -0.48853
 Alpha  occ. eigenvalues --   -0.47245  -0.47099  -0.47064  -0.46219  -0.45117
 Alpha  occ. eigenvalues --   -0.44184  -0.42448  -0.41962  -0.41410  -0.40401
 Alpha  occ. eigenvalues --   -0.38998  -0.38857  -0.38068  -0.35741  -0.35545
 Alpha  occ. eigenvalues --   -0.35246  -0.34780  -0.34671  -0.33952  -0.33633
 Alpha  occ. eigenvalues --   -0.33194  -0.33109  -0.31872  -0.28052  -0.27966
 Alpha  occ. eigenvalues --   -0.27779  -0.26871
 Alpha virt. eigenvalues --   -0.06491  -0.06103  -0.06042  -0.05446  -0.05023
 Alpha virt. eigenvalues --   -0.03466  -0.00913  -0.00255   0.00579   0.00891
 Alpha virt. eigenvalues --    0.01359   0.01789   0.01955   0.02147   0.02501

 Mulliken charges:
               1
     1  C   -0.034071
     2  C   -0.542097
     3  C   -0.368196
     4  C    0.685768
     5  C   -0.369010
     6  C   -0.541910
     7  C   -0.325212
     8  C   -0.911955
     9  C   -0.550194
    10  C   -0.147122
    11  C    0.094876
    12  C   -1.004812
    13  H    0.170667
    14  H    0.170662
    15  H    0.152493
    16  Cl   0.557407
    17  Cl   0.359984
    18  Cl   0.614210
    19  Cl   0.620033
    20  Cl   0.435066
    21  Cl   0.573615
    22  Cl   0.359801
 Sum of Mulliken charges =  -0.00000

 Dipole moment (field-independent basis, Debye):
    X=              1.6426    Y=              0.7477    Z=              0.0012  Tot=              1.8047
 Quadrupole moment (field-independent basis, Debye-Ang):
   XX=           -157.8144   YY=           -157.6451   ZZ=           -156.2205
   XY=              0.9829   XZ=              0.0015   YZ=             -0.0054

 Normal termination of Gaussian 16 at Mon Apr 25 02:35:42 2022.
