 Gaussian 16, Revision B.01,
 Gaussian 16:  EM64L-G16RevB.01 20-Dec-2017

 --------------------------------
 # opt b3lyp/6-311+g(d,p) scf=xqc
 --------------------------------

 -------------------
 Title Card Required
 -------------------
 Symbolic Z-matrix:
 Charge =  0 Multiplicity = 1

 SCF Done:  E(RB3LYP) =  -3220.56182620     A.U. after   28 cycles
 SCF Done:  E(RB3LYP) =  -3220.65418698     A.U. after   21 cycles
 SCF Done:  E(RB3LYP) =  -3220.80275175     A.U. after   20 cycles
 SCF Done:  E(RB3LYP) =  -3220.80223875     A.U. after   19 cycles
 SCF Done:  E(RB3LYP) =  -3220.88626518     A.U. after   17 cycles
 SCF Done:  E(RB3LYP) =  -3220.92376259     A.U. after   17 cycles
 SCF Done:  E(RB3LYP) =  -3220.99173568     A.U. after   17 cycles
 SCF Done:  E(RB3LYP) =  -3220.98154772     A.U. after   17 cycles
 SCF Done:  E(RB3LYP) =  -3221.01771799     A.U. after   15 cycles
 SCF Done:  E(RB3LYP) =  -3220.95085998     A.U. after   17 cycles
 SCF Done:  E(RB3LYP) =  -3221.13415591     A.U. after   11 cycles
 SCF Done:  E(RB3LYP) =  -3221.13415944     A.U. after   12 cycles
 SCF Done:  E(RB3LYP) =  -3221.13416531     A.U. after   12 cycles
 SCF Done:  E(RB3LYP) =  -3221.13417882     A.U. after   12 cycles
 SCF Done:  E(RB3LYP) =  -3221.13418764     A.U. after   12 cycles
 SCF Done:  E(RB3LYP) =  -3221.13419407     A.U. after   12 cycles
 SCF Done:  E(RB3LYP) =  -3221.13419990     A.U. after   11 cycles
 SCF Done:  E(RB3LYP) =  -3221.13420165     A.U. after   11 cycles
 SCF Done:  E(RB3LYP) =  -3221.13420192     A.U. after   11 cycles
 SCF Done:  E(RB3LYP) =  -3221.13420209     A.U. after   10 cycles
 Optimization completed.
    -- Stationary point found.

                         Standard orientation:
 ---------------------------------------------------------------------
 Center     Atomic      Atomic             Coordinates (Angstroms)
 Number     Number       Type             X           Y           Z
 ---------------------------------------------------------------------
      1          6           0       -0.956376    0.125938   -0.475374
      2          6           0       -1.411019   -0.065107   -1.784941
      3          6           0       -2.767294   -0.120131   -2.087397
      4          6           0       -3.700383    0.018494   -1.070626
      5          6           0       -3.283685    0.211286    0.243295
      6          6           0       -1.917961    0.265463    0.540544
      7          6           0        0.502693    0.206241   -0.166679
      8          6           0        1.135459    1.448673   -0.212802
      9          6           0        2.492391    1.544102    0.065299
     10          6           0        3.239888    0.420652    0.391020
     11          6           0        2.611048   -0.820336    0.437266
     12          6           0        1.244238   -0.937242    0.159842
     13          1           0       -3.087339   -0.270741   -3.109727
     14          1           0       -4.759250   -0.022097   -1.290449
     15          1           0        0.566222    2.333441   -0.464921
     16          1           0        4.296248    0.499148    0.607016
     17         17           0        0.453983   -2.489321    0.216402
     18         17           0       -1.386004    0.501150    2.184283
     19         17           0        3.574461   -2.215742    0.848359
     20         17           0       -4.495089    0.383172    1.487696
     21         17           0        3.279582    3.108952    0.005090
     22         17           0       -0.259278   -0.248679   -3.093511
 ---------------------------------------------------------------------

 The electronic state is 1-A.
 Alpha  occ. eigenvalues -- -101.57692-101.57577-101.57491-101.57490-101.57419
 Alpha  occ. eigenvalues -- -101.57310 -10.27721 -10.27280 -10.27108 -10.27091
 Alpha  occ. eigenvalues --  -10.27064 -10.26632 -10.23982 -10.23605 -10.22093
 Alpha  occ. eigenvalues --  -10.21974 -10.21783 -10.21646  -9.49166  -9.49035
 Alpha  occ. eigenvalues --   -9.48960  -9.48950  -9.48891  -9.48764  -7.25653
 Alpha  occ. eigenvalues --   -7.25522  -7.25438  -7.25432  -7.25376  -7.25237
 Alpha  occ. eigenvalues --   -7.24649  -7.24575  -7.24513  -7.24456  -7.24440
 Alpha  occ. eigenvalues --   -7.24428  -7.24391  -7.24370  -7.24369  -7.24308
 Alpha  occ. eigenvalues --   -7.24240  -7.24205  -0.95515  -0.94057  -0.90716
 Alpha  occ. eigenvalues --   -0.90322  -0.88642  -0.87692  -0.84767  -0.84378
 Alpha  occ. eigenvalues --   -0.80366  -0.76525  -0.74776  -0.74387  -0.67895
 Alpha  occ. eigenvalues --   -0.63508  -0.62791  -0.61672  -0.54922  -0.53518
 Alpha  occ. eigenvalues --   -0.53462  -0.53315  -0.49985  -0.48117  -0.46793
 Alpha  occ. eigenvalues --   -0.46533  -0.46400  -0.44804  -0.44681  -0.43093
 Alpha  occ. eigenvalues --   -0.41503  -0.41344  -0.40614  -0.39747  -0.38995
 Alpha  occ. eigenvalues --   -0.36894  -0.36515  -0.35159  -0.34722  -0.33994
 Alpha  occ. eigenvalues --   -0.33616  -0.33542  -0.33289  -0.32635  -0.32486
 Alpha  occ. eigenvalues --   -0.28606  -0.28259  -0.26658  -0.26409
 Alpha virt. eigenvalues --   -0.05946  -0.05832  -0.05613  -0.04750  -0.03660
 Alpha virt. eigenvalues --   -0.02304  -0.00648  -0.00039   0.00344   0.00871
 Alpha virt. eigenvalues --    0.01982   0.02229   0.02335   0.02531   0.03356

 Mulliken charges:
               1
     1  C   -0.179730
     2  C   -0.055901
     3  C   -0.356786
     4  C   -0.576965
     5  C    1.281071
     6  C   -1.462924
     7  C   -0.751453
     8  C   -0.621074
     9  C    0.574136
    10  C   -0.990939
    11  C    0.751840
    12  C   -1.167596
    13  H    0.156961
    14  H    0.160120
    15  H    0.146488
    16  H    0.173725
    17  Cl   0.561719
    18  Cl   0.553184
    19  Cl   0.475495
    20  Cl   0.470712
    21  Cl   0.436662
    22  Cl   0.421254
 Sum of Mulliken charges =  -0.00000

 Dipole moment (field-independent basis, Debye):
    X=             -1.2585    Y=              0.6099    Z=             -1.3996  Tot=              1.9785
 Quadrupole moment (field-independent basis, Debye-Ang):
   XX=           -136.5778   YY=           -147.9870   ZZ=           -144.5783
   XY=              0.8417   XZ=              7.8979   YZ=              0.0478

 Normal termination of Gaussian 16 at Sun Apr  3 21:05:13 2022.
