 Gaussian 16, Revision B.01,
 Gaussian 16:  EM64L-G16RevB.01 20-Dec-2017

 ------------------------
 # opt b3lyp/6-311+g(d,p)
 ------------------------

 -------------------
 Title Card Required
 -------------------
 Symbolic Z-matrix:
 Charge =  0 Multiplicity = 1

 SCF Done:  E(RB3LYP) =  -4139.80121920     A.U. after   31 cycles
 SCF Done:  E(RB3LYP) =  -4139.92544070     A.U. after   19 cycles
 SCF Done:  E(RB3LYP) =  -4137.26583770     A.U. after   24 cycles
 SCF Done:  E(RB3LYP) =  -4139.99289626     A.U. after   17 cycles
 SCF Done:  E(RB3LYP) =  -4140.03118800     A.U. after   15 cycles
 SCF Done:  E(RB3LYP) =  -4140.07569527     A.U. after   14 cycles
 SCF Done:  E(RB3LYP) =  -4140.13785516     A.U. after   15 cycles
 SCF Done:  E(RB3LYP) =  -4140.17288981     A.U. after   15 cycles
 SCF Done:  E(RB3LYP) =  -4140.20086326     A.U. after   15 cycles
 SCF Done:  E(RB3LYP) =  -4140.23758015     A.U. after   16 cycles
 SCF Done:  E(RB3LYP) =  -4140.35971869     A.U. after   13 cycles
 SCF Done:  E(RB3LYP) =  -4140.35978558     A.U. after   13 cycles
 SCF Done:  E(RB3LYP) =  -4140.35985870     A.U. after   14 cycles
 SCF Done:  E(RB3LYP) =  -4140.35990621     A.U. after   14 cycles
 SCF Done:  E(RB3LYP) =  -4140.35993656     A.U. after   13 cycles
 SCF Done:  E(RB3LYP) =  -4140.35996519     A.U. after   14 cycles
 SCF Done:  E(RB3LYP) =  -4140.35998098     A.U. after   13 cycles
 SCF Done:  E(RB3LYP) =  -4140.35999210     A.U. after   12 cycles
 SCF Done:  E(RB3LYP) =  -4140.35999392     A.U. after   11 cycles
 SCF Done:  E(RB3LYP) =  -4140.35999415     A.U. after   11 cycles
 Optimization completed.
    -- Stationary point found.

                         Standard orientation:
 ---------------------------------------------------------------------
 Center     Atomic      Atomic             Coordinates (Angstroms)
 Number     Number       Type             X           Y           Z
 ---------------------------------------------------------------------
      1          6           0        1.070286    0.000283   -0.105566
      2          6           0        1.852520    0.000260    1.049202
      3          6           0        3.242168    0.000081    0.984588
      4          6           0        3.873627   -0.000045   -0.262946
      5          6           0        3.108424   -0.000004   -1.425704
      6          6           0        1.721849    0.000115   -1.342586
      7          6           0       -0.417540    0.000100    0.009372
      8          6           0       -1.131362    1.202903    0.070759
      9          6           0       -2.526419    1.214756    0.188987
     10          6           0       -3.223384   -0.000152    0.247615
     11          6           0       -2.526185   -1.214913    0.188909
     12          6           0       -1.131104   -1.202876    0.070668
     13          1           0        1.372686    0.000357    2.019449
     14          1           0        3.596637   -0.000088   -2.390372
     15         17           0       -0.254046   -2.705989   -0.008511
     16         17           0        0.797814    0.000270   -2.829715
     17         17           0       -3.387213   -2.719354    0.262668
     18         17           0       -4.951909   -0.000259    0.395119
     19         17           0        5.610395   -0.000196   -0.407906
     20         17           0       -3.387657    2.719033    0.262902
     21         17           0        4.153755    0.000110    2.471156
     22         17           0       -0.254469    2.706190   -0.008587
 ---------------------------------------------------------------------

 The electronic state is 1-A.
 Alpha  occ. eigenvalues -- -101.58682-101.58570-101.58570-101.58491-101.58491
 Alpha  occ. eigenvalues -- -101.57924-101.57830-101.57783 -10.29118 -10.28797
 Alpha  occ. eigenvalues --  -10.28791 -10.28701 -10.28700 -10.27700 -10.27342
 Alpha  occ. eigenvalues --  -10.27340 -10.24929 -10.23835 -10.22516 -10.22446
 Alpha  occ. eigenvalues --   -9.50148  -9.50036  -9.50035  -9.49967  -9.49966
 Alpha  occ. eigenvalues --   -9.49380  -9.49299  -9.49238  -7.26657  -7.26544
 Alpha  occ. eigenvalues --   -7.26544  -7.26462  -7.26461  -7.25868  -7.25771
 Alpha  occ. eigenvalues --   -7.25727  -7.25629  -7.25536  -7.25514  -7.25513
 Alpha  occ. eigenvalues --   -7.25447  -7.25446  -7.25427  -7.25427  -7.25368
 Alpha  occ. eigenvalues --   -7.25367  -7.24859  -7.24798  -7.24775  -7.24735
 Alpha  occ. eigenvalues --   -7.24715  -7.24660  -0.97713  -0.95040  -0.93099
 Alpha  occ. eigenvalues --   -0.92302  -0.90637  -0.88557  -0.88409  -0.87479
 Alpha  occ. eigenvalues --   -0.85239  -0.84361  -0.80184  -0.76650  -0.75147
 Alpha  occ. eigenvalues --   -0.74248  -0.67072  -0.65325  -0.63839  -0.61476
 Alpha  occ. eigenvalues --   -0.56778  -0.55427  -0.53981  -0.52876  -0.50286
 Alpha  occ. eigenvalues --   -0.49162  -0.47878  -0.47591  -0.47441  -0.46853
 Alpha  occ. eigenvalues --   -0.45457  -0.45092  -0.43766  -0.42026  -0.41889
 Alpha  occ. eigenvalues --   -0.41778  -0.39890  -0.39636  -0.37137  -0.36795
 Alpha  occ. eigenvalues --   -0.36430  -0.36420  -0.36047  -0.35154  -0.35108
 Alpha  occ. eigenvalues --   -0.34095  -0.33861  -0.33712  -0.33316  -0.33024
 Alpha  occ. eigenvalues --   -0.31905  -0.28722  -0.28102  -0.27286  -0.26837
 Alpha virt. eigenvalues --   -0.07007  -0.06898  -0.06369  -0.06084  -0.05520
 Alpha virt. eigenvalues --   -0.03144  -0.01284  -0.00816  -0.00481   0.00245
 Alpha virt. eigenvalues --    0.01014   0.01925   0.01989   0.02217   0.02355

 Mulliken charges:
               1
     1  C    0.157499
     2  C   -0.846941
     3  C    0.215101
     4  C    0.141522
     5  C   -0.565157
     6  C   -1.250198
     7  C   -0.446559
     8  C   -1.324192
     9  C    0.022127
    10  C    0.285669
    11  C    0.021208
    12  C   -1.324898
    13  H    0.151359
    14  H    0.172508
    15  Cl   0.597729
    16  Cl   0.388378
    17  Cl   0.635627
    18  Cl   0.680819
    19  Cl   0.510543
    20  Cl   0.635593
    21  Cl   0.544440
    22  Cl   0.597821
 Sum of Mulliken charges =  -0.00000

 Dipole moment (field-independent basis, Debye):
    X=             -0.0854    Y=             -0.0001    Z=             -0.0189  Tot=              0.0875
 Quadrupole moment (field-independent basis, Debye-Ang):
   XX=           -172.6276   YY=           -170.5390   ZZ=           -167.4332
   XY=             -0.0008   XZ=             -3.4518   YZ=              0.0005

 Normal termination of Gaussian 16 at Sat Apr 30 12:31:03 2022.
