 Gaussian 16, Revision B.01,
 Gaussian 16:  EM64L-G16RevB.01 20-Dec-2017

 --------------------------------
 # opt b3lyp/6-311+g(d,p) scf=xqc
 --------------------------------

 -------------------
 Title Card Required
 -------------------
 Symbolic Z-matrix:
 Charge =  0 Multiplicity = 1

 SCF Done:  E(RB3LYP) =  -3220.57208698     A.U. after   29 cycles
 SCF Done:  E(RB3LYP) =  -3220.44598638     A.U. after   28 cycles
 SCF Done:  E(RB3LYP) =  -3220.73294504     A.U. after   21 cycles
 SCF Done:  E(RB3LYP) =  -3220.81128113     A.U. after   17 cycles
 SCF Done:  E(RB3LYP) =  -3220.86431379     A.U. after   18 cycles
 SCF Done:  E(RB3LYP) =  -3220.95863485     A.U. after   17 cycles
 SCF Done:  E(RB3LYP) =  -3220.97124157     A.U. after   17 cycles
 SCF Done:  E(RB3LYP) =  -3220.99660938     A.U. after   17 cycles
 SCF Done:  E(RB3LYP) =  -3221.02614138     A.U. after   17 cycles
 SCF Done:  E(RB3LYP) =  -3221.05156271     A.U. after   15 cycles
 SCF Done:  E(RB3LYP) =  -3221.12723490     A.U. after   12 cycles
 SCF Done:  E(RB3LYP) =  -3221.12724716     A.U. after   12 cycles
 SCF Done:  E(RB3LYP) =  -3221.12726301     A.U. after   12 cycles
 SCF Done:  E(RB3LYP) =  -3221.12727819     A.U. after   12 cycles
 SCF Done:  E(RB3LYP) =  -3221.12729160     A.U. after   12 cycles
 SCF Done:  E(RB3LYP) =  -3221.12730570     A.U. after   12 cycles
 SCF Done:  E(RB3LYP) =  -3221.12731622     A.U. after   12 cycles
 SCF Done:  E(RB3LYP) =  -3221.12732367     A.U. after   12 cycles
 SCF Done:  E(RB3LYP) =  -3221.12732575     A.U. after   12 cycles
 SCF Done:  E(RB3LYP) =  -3221.12732646     A.U. after   11 cycles
 Optimization completed.
    -- Stationary point found.

                         Standard orientation:
 ---------------------------------------------------------------------
 Center     Atomic      Atomic             Coordinates (Angstroms)
 Number     Number       Type             X           Y           Z
 ---------------------------------------------------------------------
      1          6           0       -1.422296    0.263489   -0.757667
      2          6           0       -1.849925    0.372973   -2.082680
      3          6           0       -3.204914    0.431166   -2.391624
      4          6           0       -4.152420    0.383585   -1.376557
      5          6           0       -3.743175    0.278563   -0.049511
      6          6           0       -2.380726    0.219440    0.266036
      7          6           0        0.041379    0.226556   -0.460578
      8          6           0        0.742851    1.425546   -0.362663
      9          6           0        2.108676    1.440400   -0.110698
     10          6           0        2.812045    0.242089    0.048945
     11          6           0        2.118214   -0.975495   -0.051695
     12          6           0        0.739651   -0.976993   -0.306346
     13          1           0       -1.107657    0.404463   -2.871212
     14          1           0       -3.525378    0.512891   -3.423175
     15          1           0       -5.210710    0.427580   -1.599138
     16          1           0        0.216195    2.363750   -0.476236
     17         17           0       -0.124845   -2.484936   -0.438643
     18         17           0       -1.859582    0.095060    1.927416
     19         17           0        2.973152   -2.475389    0.136078
     20         17           0       -4.964819    0.228401    1.198439
     21         17           0        4.518844    0.259142    0.363470
     22         17           0        2.914390    2.983806    0.000298
 ---------------------------------------------------------------------

 The electronic state is 1-A.
 Alpha  occ. eigenvalues -- -101.57941-101.57889-101.57780-101.57636-101.57236
 Alpha  occ. eigenvalues -- -101.57146 -10.28130 -10.28047 -10.27592 -10.27446
 Alpha  occ. eigenvalues --  -10.26935 -10.26677 -10.23547 -10.22995 -10.22094
 Alpha  occ. eigenvalues --  -10.21269 -10.21012 -10.20884  -9.49405  -9.49356
 Alpha  occ. eigenvalues --   -9.49236  -9.49111  -9.48710  -9.48606  -7.25909
 Alpha  occ. eigenvalues --   -7.25860  -7.25727  -7.25600  -7.25191  -7.25088
 Alpha  occ. eigenvalues --   -7.24886  -7.24838  -7.24800  -7.24750  -7.24714
 Alpha  occ. eigenvalues --   -7.24654  -7.24592  -7.24520  -7.24194  -7.24126
 Alpha  occ. eigenvalues --   -7.24088  -7.24029  -0.96205  -0.93802  -0.91533
 Alpha  occ. eigenvalues --   -0.89785  -0.87713  -0.86806  -0.86407  -0.84742
 Alpha  occ. eigenvalues --   -0.79650  -0.75720  -0.75552  -0.74451  -0.66747
 Alpha  occ. eigenvalues --   -0.63936  -0.62992  -0.61488  -0.55165  -0.54611
 Alpha  occ. eigenvalues --   -0.52963  -0.51747  -0.49724  -0.48158  -0.46909
 Alpha  occ. eigenvalues --   -0.46559  -0.46076  -0.45949  -0.43953  -0.43485
 Alpha  occ. eigenvalues --   -0.42126  -0.40508  -0.39960  -0.39856  -0.37853
 Alpha  occ. eigenvalues --   -0.36422  -0.35794  -0.35613  -0.35352  -0.35022
 Alpha  occ. eigenvalues --   -0.34415  -0.33571  -0.33448  -0.32222  -0.31740
 Alpha  occ. eigenvalues --   -0.28138  -0.27656  -0.26924  -0.26712
 Alpha virt. eigenvalues --   -0.06199  -0.05916  -0.05076  -0.04840  -0.04395
 Alpha virt. eigenvalues --   -0.02237  -0.00845  -0.00142   0.00783   0.01779
 Alpha virt. eigenvalues --    0.02035   0.02112   0.02406   0.02603   0.03484

 Mulliken charges:
               1
     1  C    0.048342
     2  C   -0.406527
     3  C   -0.419901
     4  C   -0.546764
     5  C    0.895222
     6  C   -1.427061
     7  C   -0.124390
     8  C   -0.930477
     9  C   -0.360711
    10  C   -0.057012
    11  C   -0.239482
    12  C   -0.442190
    13  H    0.131042
    14  H    0.141070
    15  H    0.155038
    16  H    0.151512
    17  Cl   0.620182
    18  Cl   0.565735
    19  Cl   0.594352
    20  Cl   0.449969
    21  Cl   0.635630
    22  Cl   0.566420
 Sum of Mulliken charges =  -0.00000

 Dipole moment (field-independent basis, Debye):
    X=             -1.4348    Y=              0.9460    Z=             -2.6439  Tot=              3.1533
 Quadrupole moment (field-independent basis, Debye-Ang):
   XX=           -144.6691   YY=           -146.1873   ZZ=           -139.1455
   XY=             -1.6697   XZ=              8.3427   YZ=             -1.8545

 Normal termination of Gaussian 16 at Sun Apr  3 09:33:38 2022.
