 Gaussian 16, Revision B.01,
 Gaussian 16:  EM64L-G16RevB.01 20-Dec-2017

 --------------------------------
 # opt b3lyp/6-311+g(d,p) scf=xqc
 --------------------------------

 -------------------
 Title Card Required
 -------------------
 Symbolic Z-matrix:
 Charge =  0 Multiplicity = 1

 SCF Done:  E(RB3LYP) =  -3220.66299546     A.U. after   24 cycles
 SCF Done:  E(RB3LYP) =  -3220.74802657     A.U. after   20 cycles
 SCF Done:  E(RB3LYP) =  -3220.90318381     A.U. after   17 cycles
 SCF Done:  E(RB3LYP) =  -3220.89635394     A.U. after   17 cycles
 SCF Done:  E(RB3LYP) =  -3220.38708116     A.U. after   19 cycles
 SCF Done:  E(RB3LYP) =  -3217.28414888     A.U. after   33 cycles
 SCF Done:  E(RB3LYP) =  -3217.28414888     a.u. after    1 cycles
 SCF Done:  E(RB3LYP) =  -3220.90741903     A.U. after   14 cycles
 SCF Done:  E(RB3LYP) =  -3220.95312782     A.U. after   16 cycles
 SCF Done:  E(RB3LYP) =  -3220.82788400     A.U. after   17 cycles
 SCF Done:  E(RB3LYP) =  -3221.12960397     A.U. after   13 cycles
 SCF Done:  E(RB3LYP) =  -3221.12961942     A.U. after   13 cycles
 SCF Done:  E(RB3LYP) =  -3221.12963505     A.U. after   13 cycles
 SCF Done:  E(RB3LYP) =  -3221.12964407     A.U. after   13 cycles
 SCF Done:  E(RB3LYP) =  -3221.12966003     A.U. after   12 cycles
 SCF Done:  E(RB3LYP) =  -3221.12967238     A.U. after   12 cycles
 SCF Done:  E(RB3LYP) =  -3221.12967987     A.U. after   11 cycles
 SCF Done:  E(RB3LYP) =  -3221.12968503     A.U. after   12 cycles
 SCF Done:  E(RB3LYP) =  -3221.12968601     A.U. after   11 cycles
 SCF Done:  E(RB3LYP) =  -3221.12968616     A.U. after   10 cycles
 Optimization completed.
    -- Stationary point found.

                         Standard orientation:
 ---------------------------------------------------------------------
 Center     Atomic      Atomic             Coordinates (Angstroms)
 Number     Number       Type             X           Y           Z
 ---------------------------------------------------------------------
      1          6           0        1.825944    0.264280    0.000103
      2          6           0        2.561263    0.300918    1.193430
      3          6           0        3.950436    0.368866    1.205479
      4          6           0        4.638734    0.402988   -0.002407
      5          6           0        3.948231    0.370131   -1.209150
      6          6           0        2.559183    0.302093   -1.194571
      7          6           0        0.334879    0.215983    0.000946
      8          6           0       -0.383225    1.408291    0.001360
      9          6           0       -1.771353    1.408115    0.001211
     10          6           0       -2.479161    0.201307    0.000555
     11          6           0       -1.766462   -1.009070    0.000015
     12          6           0       -0.364971   -0.995236    0.000183
     13          1           0        4.477714    0.393705    2.149836
     14          1           0        5.720983    0.455337   -0.003431
     15          1           0        4.473908    0.396040   -2.154372
     16          1           0        0.145520    2.352061    0.001594
     17         17           0        0.527839   -2.491638   -0.000402
     18         17           0        1.713885    0.257600   -2.732126
     19         17           0       -2.624377   -2.519004   -0.000757
     20         17           0       -4.214763    0.200324    0.000355
     21         17           0       -2.600535    2.943037    0.001642
     22         17           0        1.719180    0.255026    2.732668
 ---------------------------------------------------------------------

 The electronic state is 1-A.
 Alpha  occ. eigenvalues -- -101.57737-101.57676-101.57541-101.57473-101.57190
 Alpha  occ. eigenvalues -- -101.57190 -10.27894 -10.27836 -10.27384 -10.27198
 Alpha  occ. eigenvalues --  -10.26780 -10.26779 -10.23436 -10.23369 -10.21884
 Alpha  occ. eigenvalues --  -10.21337 -10.21077 -10.21070  -9.49202  -9.49143
 Alpha  occ. eigenvalues --   -9.48997  -9.48949  -9.48662  -9.48661  -7.25705
 Alpha  occ. eigenvalues --   -7.25647  -7.25488  -7.25437  -7.25129  -7.25128
 Alpha  occ. eigenvalues --   -7.24683  -7.24624  -7.24597  -7.24537  -7.24474
 Alpha  occ. eigenvalues --   -7.24428  -7.24416  -7.24360  -7.24145  -7.24144
 Alpha  occ. eigenvalues --   -7.24095  -7.24094  -0.96047  -0.93484  -0.91253
 Alpha  occ. eigenvalues --   -0.89386  -0.89289  -0.86573  -0.85006  -0.84678
 Alpha  occ. eigenvalues --   -0.79965  -0.75748  -0.75592  -0.74276  -0.66465
 Alpha  occ. eigenvalues --   -0.63762  -0.62892  -0.61656  -0.55400  -0.54506
 Alpha  occ. eigenvalues --   -0.52667  -0.51911  -0.49553  -0.48135  -0.46732
 Alpha  occ. eigenvalues --   -0.46623  -0.45950  -0.45770  -0.43731  -0.43330
 Alpha  occ. eigenvalues --   -0.41708  -0.40412  -0.40085  -0.39874  -0.38227
 Alpha  occ. eigenvalues --   -0.37647  -0.35416  -0.35211  -0.34914  -0.34238
 Alpha  occ. eigenvalues --   -0.33854  -0.33808  -0.33270  -0.32659  -0.31591
 Alpha  occ. eigenvalues --   -0.28294  -0.27425  -0.27040  -0.26490
 Alpha virt. eigenvalues --   -0.05911  -0.05608  -0.05230  -0.04656  -0.04650
 Alpha virt. eigenvalues --   -0.02003  -0.00655   0.00085   0.01217   0.01380
 Alpha virt. eigenvalues --    0.01877   0.02158   0.02316   0.02749   0.03581

 Mulliken charges:
               1
     1  C    0.070620
     2  C   -0.302724
     3  C   -0.005085
     4  C   -0.315960
     5  C   -0.004380
     6  C   -0.302302
     7  C   -0.163306
     8  C   -1.054796
     9  C   -0.807912
    10  C    0.277335
    11  C    0.111261
    12  C   -1.216197
    13  H    0.151527
    14  H    0.143730
    15  H    0.151522
    16  H    0.151203
    17  Cl   0.509217
    18  Cl   0.390657
    19  Cl   0.624436
    20  Cl   0.622458
    21  Cl   0.577905
    22  Cl   0.390792
 Sum of Mulliken charges =  -0.00000

 Dipole moment (field-independent basis, Debye):
    X=              3.4696    Y=              0.9005    Z=             -0.0019  Tot=              3.5845
 Quadrupole moment (field-independent basis, Debye-Ang):
   XX=           -129.3087   YY=           -146.2373   ZZ=           -146.1826
   XY=              2.5868   XZ=             -0.0114   YZ=             -0.0013

 Normal termination of Gaussian 16 at Wed Apr 13 20:30:54 2022.
