 Gaussian 16, Revision B.01,
 Gaussian 16:  EM64L-G16RevB.01 20-Dec-2017

 --------------------------------
 # opt b3lyp/6-311+g(d,p) scf=xqc
 --------------------------------

 -------------------
 Title Card Required
 -------------------
 Symbolic Z-matrix:
 Charge =  0 Multiplicity = 1

 SCF Done:  E(RB3LYP) =  -4139.80506764     A.U. after   22 cycles
 SCF Done:  E(RB3LYP) =  -4139.64710477     A.U. after   33 cycles
 SCF Done:  E(RB3LYP) =  -4139.66047638     a.u. after    8 cycles
 SCF Done:  E(RB3LYP) =  -4139.96214983     A.U. after   20 cycles
 SCF Done:  E(RB3LYP) =  -4140.04953422     A.U. after   16 cycles
 SCF Done:  E(RB3LYP) =  -4140.12460932     A.U. after   17 cycles
 SCF Done:  E(RB3LYP) =  -4140.22383443     A.U. after   16 cycles
 SCF Done:  E(RB3LYP) =  -4140.23334993     A.U. after   16 cycles
 SCF Done:  E(RB3LYP) =  -4140.24123368     A.U. after   16 cycles
 SCF Done:  E(RB3LYP) =  -4140.28515844     A.U. after   15 cycles
 SCF Done:  E(RB3LYP) =  -4140.35822337     A.U. after   11 cycles
 SCF Done:  E(RB3LYP) =  -4140.35822810     A.U. after   11 cycles
 SCF Done:  E(RB3LYP) =  -4140.35823403     A.U. after   11 cycles
 SCF Done:  E(RB3LYP) =  -4140.35824084     A.U. after   11 cycles
 SCF Done:  E(RB3LYP) =  -4140.35825135     A.U. after   12 cycles
 SCF Done:  E(RB3LYP) =  -4140.35826035     A.U. after   11 cycles
 SCF Done:  E(RB3LYP) =  -4140.35826571     A.U. after   11 cycles
 SCF Done:  E(RB3LYP) =  -4140.35826847     A.U. after   11 cycles
 SCF Done:  E(RB3LYP) =  -4140.35826936     A.U. after   10 cycles
 SCF Done:  E(RB3LYP) =  -4140.35826955     A.U. after    9 cycles
 Optimization completed.
    -- Stationary point found.

                         Standard orientation:
 ---------------------------------------------------------------------
 Center     Atomic      Atomic             Coordinates (Angstroms)
 Number     Number       Type             X           Y           Z
 ---------------------------------------------------------------------
      1          6           0        0.746631    0.235118    0.013861
      2          6           0        1.408926    1.139927    0.839127
      3          6           0        2.796519    1.188116    0.881945
      4          6           0        3.559406    0.323683    0.089553
      5          6           0        2.903446   -0.590898   -0.751773
      6          6           0        1.502586   -0.629701   -0.786399
      7          6           0       -0.746632    0.235128   -0.013909
      8          6           0       -1.408989    1.139839   -0.839251
      9          6           0       -2.796575    1.187994   -0.882035
     10          6           0       -3.559414    0.323649   -0.089493
     11          6           0       -2.903402   -0.590887    0.751847
     12          6           0       -1.502525   -0.629681    0.786387
     13          1           0        0.837425    1.812476    1.464911
     14          1           0       -0.837500    1.812396   -1.465041
     15         17           0       -0.681258   -1.756249    1.831984
     16         17           0        0.681332   -1.756147   -1.832117
     17         17           0       -3.830449   -1.667377    1.749149
     18         17           0        3.830506   -1.667477   -1.748960
     19         17           0       -5.292311    0.382688   -0.142526
     20         17           0        5.292303    0.382659    0.142695
     21         17           0       -3.552710    2.346168   -1.943544
     22         17           0        3.552600    2.346405    1.943375
 ---------------------------------------------------------------------

 The electronic state is 1-A.
 Alpha  occ. eigenvalues -- -101.58395-101.58395-101.58362-101.58361-101.58243
 Alpha  occ. eigenvalues -- -101.58243-101.58235-101.58235 -10.28675 -10.28675
 Alpha  occ. eigenvalues --  -10.28594 -10.28593 -10.28214 -10.28214 -10.27991
 Alpha  occ. eigenvalues --  -10.27991 -10.24299 -10.24271 -10.22733 -10.22733
 Alpha  occ. eigenvalues --   -9.49858  -9.49858  -9.49828  -9.49828  -9.49717
 Alpha  occ. eigenvalues --   -9.49717  -9.49690  -9.49690  -7.26363  -7.26363
 Alpha  occ. eigenvalues --   -7.26333  -7.26333  -7.26207  -7.26207  -7.26183
 Alpha  occ. eigenvalues --   -7.26183  -7.25339  -7.25339  -7.25309  -7.25309
 Alpha  occ. eigenvalues --   -7.25251  -7.25251  -7.25220  -7.25220  -7.25197
 Alpha  occ. eigenvalues --   -7.25197  -7.25167  -7.25167  -7.25126  -7.25126
 Alpha  occ. eigenvalues --   -7.25107  -7.25107  -0.97060  -0.96355  -0.92410
 Alpha  occ. eigenvalues --   -0.91941  -0.90777  -0.89573  -0.87376  -0.87198
 Alpha  occ. eigenvalues --   -0.86218  -0.84747  -0.79580  -0.76328  -0.75741
 Alpha  occ. eigenvalues --   -0.74483  -0.67155  -0.64613  -0.64344  -0.61844
 Alpha  occ. eigenvalues --   -0.55764  -0.55175  -0.55160  -0.53191  -0.50377
 Alpha  occ. eigenvalues --   -0.49039  -0.47686  -0.47460  -0.47445  -0.46655
 Alpha  occ. eigenvalues --   -0.46633  -0.44997  -0.43088  -0.42982  -0.42184
 Alpha  occ. eigenvalues --   -0.40921  -0.40454  -0.38503  -0.38455  -0.36147
 Alpha  occ. eigenvalues --   -0.36071  -0.36005  -0.35908  -0.35671  -0.35431
 Alpha  occ. eigenvalues --   -0.34336  -0.34097  -0.33915  -0.33821  -0.32175
 Alpha  occ. eigenvalues --   -0.32144  -0.28282  -0.28189  -0.27326  -0.27210
 Alpha virt. eigenvalues --   -0.07094  -0.06786  -0.06185  -0.05742  -0.05551
 Alpha virt. eigenvalues --   -0.04826  -0.01196  -0.00737  -0.00376   0.00872
 Alpha virt. eigenvalues --    0.01459   0.01751   0.01927   0.01994   0.02273

 Mulliken charges:
               1
     1  C   -0.241384
     2  C   -0.775916
     3  C   -0.481607
     4  C   -0.175751
     5  C   -0.025068
     6  C   -0.788118
     7  C   -0.241292
     8  C   -0.775830
     9  C   -0.481649
    10  C   -0.175744
    11  C   -0.025017
    12  C   -0.788161
    13  H    0.151505
    14  H    0.151507
    15  Cl   0.547978
    16  Cl   0.547968
    17  Cl   0.605750
    18  Cl   0.605757
    19  Cl   0.625748
    20  Cl   0.625749
    21  Cl   0.556791
    22  Cl   0.556782
 Sum of Mulliken charges =  -0.00000

 Dipole moment (field-independent basis, Debye):
    X=             -0.0000    Y=              1.0337    Z=             -0.0001  Tot=              1.0337
 Quadrupole moment (field-independent basis, Debye-Ang):
   XX=           -176.0019   YY=           -168.6372   ZZ=           -169.4246
   XY=             -0.0003   XZ=             -0.3523   YZ=             -0.0000

 Normal termination of Gaussian 16 at Sun Apr  3 01:21:16 2022.
