 Gaussian 16, Revision B.01,
 Gaussian 16:  EM64L-G16RevB.01 20-Dec-2017

 --------------------------------
 # opt b3lyp/6-311+g(d,p) scf=xqc
 --------------------------------

 -------------------
 Title Card Required
 -------------------
 Symbolic Z-matrix:
 Charge =  0 Multiplicity = 1

 SCF Done:  E(RB3LYP) =  -2759.89832868     A.U. after   20 cycles
 SCF Done:  E(RB3LYP) =  -2760.40661764     A.U. after   17 cycles
 SCF Done:  E(RB3LYP) =  -2760.93979309     A.U. after   17 cycles
 SCF Done:  E(RB3LYP) =  -2761.20865894     A.U. after   20 cycles
 SCF Done:  E(RB3LYP) =  -2761.22556076     A.U. after   23 cycles
 SCF Done:  E(RB3LYP) =  -2761.25798504     A.U. after   18 cycles
 SCF Done:  E(RB3LYP) =  -2761.28060302     A.U. after   18 cycles
 SCF Done:  E(RB3LYP) =  -2761.29628223     A.U. after   18 cycles
 SCF Done:  E(RB3LYP) =  -2761.33015891     A.U. after   20 cycles
 SCF Done:  E(RB3LYP) =  -2761.35996503     A.U. after   16 cycles
 SCF Done:  E(RB3LYP) =  -2761.51998120     A.U. after   14 cycles
 SCF Done:  E(RB3LYP) =  -2761.52037841     A.U. after   14 cycles
 SCF Done:  E(RB3LYP) =  -2761.52053354     A.U. after   13 cycles
 SCF Done:  E(RB3LYP) =  -2761.52071886     A.U. after   15 cycles
 SCF Done:  E(RB3LYP) =  -2761.52075218     A.U. after   13 cycles
 SCF Done:  E(RB3LYP) =  -2761.52077110     A.U. after   13 cycles
 SCF Done:  E(RB3LYP) =  -2761.52078436     A.U. after   13 cycles
 SCF Done:  E(RB3LYP) =  -2761.52078738     A.U. after   12 cycles
 SCF Done:  E(RB3LYP) =  -2761.52078794     A.U. after   12 cycles
 SCF Done:  E(RB3LYP) =  -2761.52078809     A.U. after   11 cycles
 Optimization completed.
    -- Stationary point found.

                         Standard orientation:
 ---------------------------------------------------------------------
 Center     Atomic      Atomic             Coordinates (Angstroms)
 Number     Number       Type             X           Y           Z
 ---------------------------------------------------------------------
      1          6           0       -1.092125   -0.152162   -0.252285
      2          6           0       -1.727572   -0.575761   -1.424912
      3          6           0       -3.104923   -0.756326   -1.488903
      4          6           0       -3.866133   -0.509285   -0.351643
      5          6           0       -3.275286   -0.092356    0.835116
      6          6           0       -1.894429    0.080827    0.870764
      7          6           0        0.390019    0.011650   -0.227457
      8          6           0        1.203988   -1.109172   -0.051319
      9          6           0        2.592453   -1.011216   -0.040288
     10          6           0        3.195536    0.237632   -0.211141
     11          6           0        2.403163    1.367478   -0.393416
     12          6           0        1.018611    1.250371   -0.401335
     13          1           0       -1.125655   -0.759318   -2.307288
     14          1           0       -3.579363   -1.081062   -2.405443
     15          1           0       -3.872705    0.092767    1.716934
     16          1           0        0.746399   -2.080033    0.089386
     17          1           0        2.869211    2.333352   -0.530726
     18         17           0        0.067939    2.701254   -0.649070
     19         17           0       -1.169793    0.594503    2.383381
     20         17           0        4.929243    0.425740   -0.206974
     21         17           0       -5.605798   -0.729273   -0.406575
     22         17           0        3.537368   -2.460210    0.188534
 ---------------------------------------------------------------------

 The electronic state is 1-A.
 Alpha  occ. eigenvalues -- -101.57594-101.57474-101.57263-101.57104-101.57092
 Alpha  occ. eigenvalues --  -10.27256 -10.26927 -10.26807 -10.26683 -10.26426
 Alpha  occ. eigenvalues --  -10.23060 -10.22597 -10.22017 -10.21976 -10.21475
 Alpha  occ. eigenvalues --  -10.21419 -10.21036  -9.49049  -9.48929  -9.48731
 Alpha  occ. eigenvalues --   -9.48563  -9.48559  -7.25536  -7.25415  -7.25203
 Alpha  occ. eigenvalues --   -7.25030  -7.25026  -7.24528  -7.24470  -7.24407
 Alpha  occ. eigenvalues --   -7.24352  -7.24211  -7.24165  -7.24044  -7.24040
 Alpha  occ. eigenvalues --   -7.24002  -7.23998  -0.94717  -0.93033  -0.90540
 Alpha  occ. eigenvalues --   -0.89174  -0.88019  -0.85437  -0.84128  -0.79831
 Alpha  occ. eigenvalues --   -0.77291  -0.75959  -0.73465  -0.66082  -0.64709
 Alpha  occ. eigenvalues --   -0.63737  -0.60596  -0.55507  -0.53345  -0.52227
 Alpha  occ. eigenvalues --   -0.51717  -0.49478  -0.48426  -0.46434  -0.46282
 Alpha  occ. eigenvalues --   -0.46115  -0.44600  -0.43378  -0.42926  -0.41129
 Alpha  occ. eigenvalues --   -0.40302  -0.39671  -0.39032  -0.37964  -0.36693
 Alpha  occ. eigenvalues --   -0.34854  -0.34176  -0.33804  -0.33486  -0.33247
 Alpha  occ. eigenvalues --   -0.33052  -0.32729  -0.28447  -0.28238  -0.26990
 Alpha  occ. eigenvalues --   -0.26356
 Alpha virt. eigenvalues --   -0.06070  -0.05597  -0.04647  -0.04474  -0.02865
 Alpha virt. eigenvalues --   -0.01696  -0.00629   0.00075   0.00889   0.01524
 Alpha virt. eigenvalues --    0.01659   0.01989   0.02481   0.03534   0.03759

 Mulliken charges:
               1
     1  C    0.455962
     2  C   -0.542229
     3  C   -0.695389
     4  C    0.897630
     5  C   -0.417264
     6  C   -0.962375
     7  C    0.382756
     8  C   -0.912234
     9  C    0.272607
    10  C    0.095867
    11  C   -0.601917
    12  C   -0.912472
    13  H    0.134906
    14  H    0.154704
    15  H    0.171010
    16  H    0.151725
    17  H    0.173766
    18  Cl   0.376309
    19  Cl   0.356021
    20  Cl   0.494456
    21  Cl   0.406548
    22  Cl   0.519615
 Sum of Mulliken charges =  -0.00000

 Dipole moment (field-independent basis, Debye):
    X=             -0.5495    Y=             -0.3893    Z=             -1.1937  Tot=              1.3706
 Quadrupole moment (field-independent basis, Debye-Ang):
   XX=           -139.8862   YY=           -132.6572   ZZ=           -129.9788
   XY=              3.5244   XZ=              0.3901   YZ=              1.4779

 Normal termination of Gaussian 16 at Wed Mar 16 17:27:32 2022.
