 Gaussian 16, Revision B.01,
 Gaussian 16:  EM64L-G16RevB.01 20-Dec-2017

 --------------------------------
 # opt b3lyp/6-311+g(d,p) scf=xqc
 --------------------------------

 -------------------
 Title Card Required
 -------------------
 Symbolic Z-matrix:
 Charge =  0 Multiplicity = 1

 SCF Done:  E(RB3LYP) =  -2300.27616778     A.U. after   20 cycles
 SCF Done:  E(RB3LYP) =  -2300.78554868     A.U. after   17 cycles
 SCF Done:  E(RB3LYP) =  -2301.32025035     A.U. after   18 cycles
 SCF Done:  E(RB3LYP) =  -2301.59099331     A.U. after   20 cycles
 SCF Done:  E(RB3LYP) =  -2301.60715852     A.U. after   23 cycles
 SCF Done:  E(RB3LYP) =  -2301.63572348     A.U. after   19 cycles
 SCF Done:  E(RB3LYP) =  -2301.64723683     A.U. after   17 cycles
 SCF Done:  E(RB3LYP) =  -2301.65739737     A.U. after   18 cycles
 SCF Done:  E(RB3LYP) =  -2301.67361170     A.U. after   18 cycles
 SCF Done:  E(RB3LYP) =  -2301.69348252     A.U. after   17 cycles
 SCF Done:  E(RB3LYP) =  -2301.89433989     A.U. after   13 cycles
 SCF Done:  E(RB3LYP) =  -2301.89456905     A.U. after   14 cycles
 SCF Done:  E(RB3LYP) =  -2301.89470032     A.U. after   13 cycles
 SCF Done:  E(RB3LYP) =  -2301.89486952     A.U. after   13 cycles
 SCF Done:  E(RB3LYP) =  -2301.89497856     A.U. after   14 cycles
 SCF Done:  E(RB3LYP) =  -2301.89506041     A.U. after   14 cycles
 SCF Done:  E(RB3LYP) =  -2301.89507651     A.U. after   13 cycles
 SCF Done:  E(RB3LYP) =  -2301.89507698     A.U. after   11 cycles
 SCF Done:  E(RB3LYP) =  -2301.89507712     A.U. after   10 cycles
 SCF Done:  E(RB3LYP) =  -2301.89507715     A.U. after   10 cycles
 Optimization completed.
    -- Stationary point found.

                         Standard orientation:
 ---------------------------------------------------------------------
 Center     Atomic      Atomic             Coordinates (Angstroms)
 Number     Number       Type             X           Y           Z
 ---------------------------------------------------------------------
      1          6           0        0.577283   -0.551734    0.225924
      2          6           0        1.966840   -0.372703    0.127410
      3          6           0       -0.289460    0.545014    0.315088
      4          6           0        2.482952    0.929050    0.121062
      5         17           0        3.031165   -1.742363    0.020036
      6         17           0       -0.089872   -2.164475    0.243477
      7          6           0        0.261745    1.827992    0.309082
      8          6           0       -1.767737    0.379239    0.440409
      9          6           0        1.631746    2.024685    0.212391
     10         17           0        4.201536    1.216919    0.000822
     11          1           0       -0.399640    2.683377    0.373784
     12          6           0       -2.603607    0.234193   -0.672578
     13          6           0       -2.365326    0.400150    1.706485
     14          1           0        2.049207    3.022817    0.204954
     15          6           0       -3.983427    0.108827   -0.536114
     16         17           0       -1.919934    0.213659   -2.292273
     17          6           0       -3.742756    0.274754    1.858222
     18          1           0       -1.730428    0.509302    2.578332
     19          6           0       -4.552011    0.127727    0.733947
     20          1           0       -4.599382   -0.001285   -1.419395
     21          1           0       -4.180360    0.290439    2.849354
     22          1           0       -5.626056    0.028602    0.839930
 ---------------------------------------------------------------------

 The electronic state is 1-A.
 Alpha  occ. eigenvalues -- -101.57066-101.57021-101.56815-101.56149 -10.26971
 Alpha  occ. eigenvalues --  -10.26780 -10.26601 -10.25367 -10.22283 -10.21671
 Alpha  occ. eigenvalues --  -10.20942 -10.20825 -10.20092 -10.20087 -10.19952
 Alpha  occ. eigenvalues --  -10.19634  -9.48532  -9.48480  -9.48292  -9.47622
 Alpha  occ. eigenvalues --   -7.25031  -7.24964  -7.24776  -7.24081  -7.24015
 Alpha  occ. eigenvalues --   -7.23961  -7.23932  -7.23901  -7.23777  -7.23702
 Alpha  occ. eigenvalues --   -7.23108  -7.23064  -0.94558  -0.91270  -0.89259
 Alpha  occ. eigenvalues --   -0.87119  -0.85286  -0.84711  -0.79629  -0.75700
 Alpha  occ. eigenvalues --   -0.75562  -0.73767  -0.65113  -0.63453  -0.62763
 Alpha  occ. eigenvalues --   -0.60550  -0.54915  -0.52637  -0.51934  -0.49534
 Alpha  occ. eigenvalues --   -0.48800  -0.47357  -0.46004  -0.45370  -0.44742
 Alpha  occ. eigenvalues --   -0.44270  -0.41889  -0.41537  -0.39949  -0.38483
 Alpha  occ. eigenvalues --   -0.37980  -0.37726  -0.35721  -0.34904  -0.34607
 Alpha  occ. eigenvalues --   -0.33653  -0.33479  -0.32445  -0.31334  -0.27956
 Alpha  occ. eigenvalues --   -0.26770  -0.26663  -0.26299
 Alpha virt. eigenvalues --   -0.05092  -0.04863  -0.03848  -0.03429  -0.03196
 Alpha virt. eigenvalues --   -0.00688  -0.00033   0.01298   0.01740   0.01921
 Alpha virt. eigenvalues --    0.02367   0.02846   0.03169   0.04362   0.04530

 Mulliken charges:
               1
     1  C   -1.177544
     2  C    0.363353
     3  C    0.437219
     4  C    0.228723
     5  Cl   0.597436
     6  Cl   0.492255
     7  C   -0.452554
     8  C    0.993604
     9  C   -1.064652
    10  Cl   0.492405
    11  H    0.133948
    12  C   -0.479082
    13  C   -0.658442
    14  H    0.156997
    15  C   -0.677662
    16  Cl   0.390520
    17  C   -0.206218
    18  H    0.128389
    19  C   -0.118132
    20  H    0.149642
    21  H    0.133978
    22  H    0.135817
 Sum of Mulliken charges =  -0.00000

 Dipole moment (field-independent basis, Debye):
    X=             -2.6432    Y=              1.8910    Z=              1.6314  Tot=              3.6365
 Quadrupole moment (field-independent basis, Debye-Ang):
   XX=           -112.4807   YY=           -117.9193   ZZ=           -118.6377
   XY=              1.4167   XZ=             -3.7999   YZ=              1.5062

 1\1\GINC-DAMODAR\FOpt\RB3LYP\6-311+G(d,p)\C12H6Cl4\PKC\15-Mar-2022\0\\
 # opt b3lyp/6-311+g(d,p) scf=xqc\\Title Card Required\\0,1\C,-2.177553
 9915,0.5212502572,1.5455896163\C,-2.887949103,-0.6872683205,1.45928272
 88\C,-1.2910918394,0.9137471033,0.5345597469\C,-2.6970945344,-1.506279
 7999,0.3395656628\Cl,-3.9827960944,-1.1634918962,2.7221403051\Cl,-2.39
 24524891,1.5558039725,2.9347816718\C,-1.1240582168,0.0697805776,-0.565
 3103139\C,-0.5104669262,2.1837398783,0.6135054834\C,-1.8170717749,-1.1
 27753287,-0.6681973013\Cl,-3.5512615307,-3.0208568483,0.1743051782\H,-

 Normal termination of Gaussian 16 at Tue Mar 15 17:52:24 2022.
