 Gaussian 16, Revision B.01,
 Gaussian 16:  EM64L-G16RevB.01 20-Dec-2017

 --------------------------------
 # opt b3lyp/6-311+g(d,p) scf=xqc
 --------------------------------

 -------------------
 Title Card Required
 -------------------
 Symbolic Z-matrix:
 Charge =  0 Multiplicity = 1

 SCF Done:  E(RB3LYP) =  -3680.18950724     A.U. after   26 cycles
 SCF Done:  E(RB3LYP) =  -3680.28820092     A.U. after   20 cycles
 SCF Done:  E(RB3LYP) =  -3680.37231604     A.U. after   21 cycles
 SCF Done:  E(RB3LYP) =  -3680.37355645     A.U. after   26 cycles
 SCF Done:  E(RB3LYP) =  -3680.38899079     A.U. after   18 cycles
 SCF Done:  E(RB3LYP) =  -3680.44839546     A.U. after   23 cycles
 SCF Done:  E(RB3LYP) =  -3680.48050011     A.U. after   20 cycles
 SCF Done:  E(RB3LYP) =  -3680.50147592     A.U. after   16 cycles
 SCF Done:  E(RB3LYP) =  -3679.00313557     A.U. after   24 cycles
 SCF Done:  E(RB3LYP) =  -3680.47607084     A.U. after   19 cycles
 SCF Done:  E(RB3LYP) =  -3680.74910813     A.U. after   12 cycles
 SCF Done:  E(RB3LYP) =  -3680.74914610     A.U. after   13 cycles
 SCF Done:  E(RB3LYP) =  -3680.74919902     A.U. after   13 cycles
 SCF Done:  E(RB3LYP) =  -3680.74924086     A.U. after   12 cycles
 SCF Done:  E(RB3LYP) =  -3680.74932019     A.U. after   13 cycles
 SCF Done:  E(RB3LYP) =  -3680.74934547     A.U. after   13 cycles
 SCF Done:  E(RB3LYP) =  -3680.74934756     A.U. after   11 cycles
 SCF Done:  E(RB3LYP) =  -3680.74934834     A.U. after   11 cycles
 SCF Done:  E(RB3LYP) =  -3680.74934881     A.U. after   11 cycles
 SCF Done:  E(RB3LYP) =  -3680.74934867     A.U. after    9 cycles
 Optimization completed.
    -- Stationary point found.

                         Standard orientation:
 ---------------------------------------------------------------------
 Center     Atomic      Atomic             Coordinates (Angstroms)
 Number     Number       Type             X           Y           Z
 ---------------------------------------------------------------------
      1          6           0        0.942180    0.200839   -0.144197
      2          6           0        1.574913    1.430436   -0.328286
      3          6           0        2.952656    1.526954   -0.185071
      4          6           0        3.720561    0.416948    0.139501
      5          6           0        3.091854   -0.811397    0.322848
      6          6           0        1.704191   -0.929110    0.182957
      7          6           0       -0.539079    0.116665   -0.310856
      8          6           0       -1.115742   -0.152833   -1.556489
      9          6           0       -2.491005   -0.215862   -1.730530
     10          6           0       -3.328329   -0.005458   -0.642665
     11          6           0       -2.800135    0.268903    0.624733
     12          6           0       -1.406055    0.326756    0.772070
     13          1           0        0.989956    2.304547   -0.581703
     14          1           0        4.793065    0.496306    0.249974
     15          1           0       -2.911308   -0.427321   -2.703429
     16         17           0       -0.719302    0.661394    2.338839
     17         17           0        0.913760   -2.465206    0.412133
     18         17           0       -3.850258    0.533465    1.980359
     19         17           0        4.081128   -2.189486    0.729113
     20         17           0       -5.049563   -0.092130   -0.902398
     21         17           0       -0.098439   -0.429629   -2.953803
     22         17           0        3.739863    3.075088   -0.417709
 ---------------------------------------------------------------------

 The electronic state is 1-A.
 Alpha  occ. eigenvalues -- -101.58276-101.58214-101.58210-101.58070-101.57728
 Alpha  occ. eigenvalues -- -101.57713-101.57544 -10.28535 -10.28262 -10.28197
 Alpha  occ. eigenvalues --  -10.27861 -10.27552 -10.27389 -10.26903 -10.24404
 Alpha  occ. eigenvalues --  -10.23943 -10.22648 -10.22246 -10.21949  -9.49733
 Alpha  occ. eigenvalues --   -9.49690  -9.49673  -9.49539  -9.49186  -9.49185
 Alpha  occ. eigenvalues --   -9.48997  -7.26226  -7.26182  -7.26178  -7.26018
 Alpha  occ. eigenvalues --   -7.25675  -7.25670  -7.25471  -7.25211  -7.25172
 Alpha  occ. eigenvalues --   -7.25152  -7.25146  -7.25093  -7.25070  -7.25016
 Alpha  occ. eigenvalues --   -7.24965  -7.24665  -7.24663  -7.24605  -7.24601
 Alpha  occ. eigenvalues --   -7.24473  -7.24437  -0.96608  -0.94775  -0.91589
 Alpha  occ. eigenvalues --   -0.91003  -0.90582  -0.88308  -0.87625  -0.85044
 Alpha  occ. eigenvalues --   -0.84071  -0.80261  -0.76493  -0.75428  -0.74588
 Alpha  occ. eigenvalues --   -0.67329  -0.64420  -0.63160  -0.61848  -0.55372
 Alpha  occ. eigenvalues --   -0.55231  -0.53749  -0.53364  -0.50109  -0.48687
 Alpha  occ. eigenvalues --   -0.47407  -0.47166  -0.46681  -0.46248  -0.45112
 Alpha  occ. eigenvalues --   -0.44159  -0.42723  -0.41795  -0.41313  -0.40312
 Alpha  occ. eigenvalues --   -0.39458  -0.39190  -0.36921  -0.36134  -0.36009
 Alpha  occ. eigenvalues --   -0.35103  -0.34900  -0.34430  -0.33813  -0.33503
 Alpha  occ. eigenvalues --   -0.33315  -0.32775  -0.32349  -0.28553  -0.28234
 Alpha  occ. eigenvalues --   -0.27223  -0.26698
 Alpha virt. eigenvalues --   -0.06599  -0.06324  -0.06052  -0.05178  -0.05043
 Alpha virt. eigenvalues --   -0.02954  -0.00833  -0.00351   0.00130   0.00651
 Alpha virt. eigenvalues --    0.01039   0.01822   0.02173   0.02331   0.02613

 Mulliken charges:
               1
     1  C   -0.733349
     2  C   -0.757693
     3  C    0.621543
     4  C   -1.000289
     5  C    0.751813
     6  C   -1.193371
     7  C   -0.182071
     8  C   -0.216294
     9  C   -0.639607
    10  C    0.075835
    11  C    0.818867
    12  C   -1.680492
    13  H    0.147370
    14  H    0.174007
    15  H    0.174330
    16  Cl   0.609746
    17  Cl   0.587476
    18  Cl   0.587589
    19  Cl   0.470753
    20  Cl   0.532378
    21  Cl   0.412601
    22  Cl   0.438858
 Sum of Mulliken charges =  -0.00000

 Dipole moment (field-independent basis, Debye):
    X=             -0.0561    Y=              0.6307    Z=             -0.9140  Tot=              1.1119
 Quadrupole moment (field-independent basis, Debye-Ang):
   XX=           -155.5475   YY=           -159.2452   ZZ=           -156.6064
   XY=              1.0026   XZ=              3.4959   YZ=              0.3182

 Normal termination of Gaussian 16 at Sat Apr  2 02:42:34 2022.
