 Gaussian 16, Revision B.01,
 Gaussian 16:  EM64L-G16RevB.01 20-Dec-2017

 --------------------------------
 # opt b3lyp/6-311+g(d,p) scf=xqc
 --------------------------------

 -------------------
 Title Card Required
 -------------------
 Symbolic Z-matrix:
 Charge =  0 Multiplicity = 1

 SCF Done:  E(RB3LYP) =  -3220.66328659     A.U. after   24 cycles
 SCF Done:  E(RB3LYP) =  -3220.77000469     A.U. after   20 cycles
 SCF Done:  E(RB3LYP) =  -3220.90380757     A.U. after   18 cycles
 SCF Done:  E(RB3LYP) =  -3220.88461038     A.U. after   18 cycles
 SCF Done:  E(RB3LYP) =  -3220.94886536     A.U. after   16 cycles
 SCF Done:  E(RB3LYP) =  -3220.97181537     A.U. after   17 cycles
 SCF Done:  E(RB3LYP) =  -3220.49791699     A.U. after   20 cycles
 SCF Done:  E(RB3LYP) =  -3220.98745725     A.U. after   16 cycles
 SCF Done:  E(RB3LYP) =  -3221.00648496     A.U. after   15 cycles
 SCF Done:  E(RB3LYP) =  -3220.91092452     A.U. after   17 cycles
 SCF Done:  E(RB3LYP) =  -3221.13349704     A.U. after   11 cycles
 SCF Done:  E(RB3LYP) =  -3221.13350255     A.U. after   11 cycles
 SCF Done:  E(RB3LYP) =  -3221.13351000     A.U. after   12 cycles
 SCF Done:  E(RB3LYP) =  -3221.13352244     A.U. after   13 cycles
 SCF Done:  E(RB3LYP) =  -3221.13353400     A.U. after   12 cycles
 SCF Done:  E(RB3LYP) =  -3221.13354140     A.U. after   12 cycles
 SCF Done:  E(RB3LYP) =  -3221.13354372     A.U. after   11 cycles
 SCF Done:  E(RB3LYP) =  -3221.13354491     A.U. after   11 cycles
 SCF Done:  E(RB3LYP) =  -3221.13354569     A.U. after   11 cycles
 SCF Done:  E(RB3LYP) =  -3221.13354586     A.U. after   11 cycles
 Optimization completed.
    -- Stationary point found.

                         Standard orientation:
 ---------------------------------------------------------------------
 Center     Atomic      Atomic             Coordinates (Angstroms)
 Number     Number       Type             X           Y           Z
 ---------------------------------------------------------------------
      1          6           0       -1.294076   -0.082817   -0.164313
      2          6           0       -2.116008    0.182180    0.935321
      3          6           0       -3.485004    0.339273    0.763077
      4          6           0       -4.065388    0.237037   -0.497060
      5          6           0       -3.256067   -0.027259   -1.596279
      6          6           0       -1.883594   -0.185571   -1.428017
      7          6           0        0.173169   -0.256523    0.042406
      8          6           0        0.725424   -1.511137    0.322373
      9          6           0        2.086341   -1.685791    0.530126
     10          6           0        2.934762   -0.588453    0.460970
     11          6           0        2.431866    0.688677    0.185233
     12          6           0        1.051743    0.835853   -0.020387
     13          1           0       -1.679970    0.264767    1.922502
     14          1           0       -5.133419    0.361435   -0.619785
     15          1           0       -3.688556   -0.111023   -2.584835
     16          1           0        2.487168   -2.666448    0.743473
     17         17           0        0.398143    2.413939   -0.369507
     18         17           0       -0.895300   -0.518604   -2.838108
     19         17           0        3.495915    2.057184    0.101985
     20         17           0        4.637720   -0.848987    0.728006
     21         17           0       -4.495983    0.671335    2.158802
     22         17           0       -0.305451   -2.923193    0.415172
 ---------------------------------------------------------------------

 The electronic state is 1-A.
 Alpha  occ. eigenvalues -- -101.58046-101.57969-101.57902-101.57763-101.57021
 Alpha  occ. eigenvalues -- -101.56915 -10.28221 -10.27984 -10.27918 -10.27546
 Alpha  occ. eigenvalues --  -10.26281 -10.26044 -10.24021 -10.23112 -10.22366
 Alpha  occ. eigenvalues --  -10.21480 -10.21375 -10.21318  -9.49503  -9.49432
 Alpha  occ. eigenvalues --   -9.49379  -9.49232  -9.48491  -9.48370  -7.25996
 Alpha  occ. eigenvalues --   -7.25936  -7.25871  -7.25710  -7.24981  -7.24957
 Alpha  occ. eigenvalues --   -7.24917  -7.24911  -7.24861  -7.24837  -7.24830
 Alpha  occ. eigenvalues --   -7.24781  -7.24710  -7.24658  -7.23971  -7.23932
 Alpha  occ. eigenvalues --   -7.23848  -7.23815  -0.96216  -0.93085  -0.91094
 Alpha  occ. eigenvalues --   -0.90630  -0.89318  -0.87407  -0.84440  -0.83841
 Alpha  occ. eigenvalues --   -0.81005  -0.76538  -0.75281  -0.73881  -0.66754
 Alpha  occ. eigenvalues --   -0.64333  -0.63566  -0.61022  -0.55088  -0.54940
 Alpha  occ. eigenvalues --   -0.52854  -0.51937  -0.49784  -0.48457  -0.47119
 Alpha  occ. eigenvalues --   -0.46724  -0.45933  -0.45726  -0.43749  -0.43566
 Alpha  occ. eigenvalues --   -0.41977  -0.40509  -0.40142  -0.39842  -0.38923
 Alpha  occ. eigenvalues --   -0.38235  -0.35887  -0.35716  -0.34664  -0.34119
 Alpha  occ. eigenvalues --   -0.33581  -0.33258  -0.33109  -0.32886  -0.32255
 Alpha  occ. eigenvalues --   -0.29086  -0.27955  -0.26943  -0.26232
 Alpha virt. eigenvalues --   -0.06276  -0.05989  -0.05302  -0.04727  -0.04520
 Alpha virt. eigenvalues --   -0.01155  -0.00442  -0.00010   0.00493   0.00961
 Alpha virt. eigenvalues --    0.01136   0.01931   0.02445   0.02688   0.03480

 Mulliken charges:
               1
     1  C   -0.344114
     2  C   -0.721665
     3  C    0.749492
     4  C   -0.587533
     5  C   -0.328818
     6  C   -0.674958
     7  C    0.180070
     8  C   -0.332590
     9  C   -0.722832
    10  C    0.005077
    11  C    0.679528
    12  C   -1.484695
    13  H    0.145763
    14  H    0.156196
    15  H    0.154552
    16  H    0.173859
    17  Cl   0.589549
    18  Cl   0.394956
    19  Cl   0.600227
    20  Cl   0.530552
    21  Cl   0.425031
    22  Cl   0.412352
 Sum of Mulliken charges =  -0.00000

 Dipole moment (field-independent basis, Debye):
    X=             -0.9217    Y=             -0.6834    Z=             -0.1838  Tot=              1.1620
 Quadrupole moment (field-independent basis, Debye-Ang):
   XX=           -140.6567   YY=           -145.5630   ZZ=           -145.0369
   XY=             -2.7968   XZ=              6.3790   YZ=             -1.1038

 Normal termination of Gaussian 16 at Wed Apr 13 23:33:53 2022.
