 Gaussian 16, Revision B.01,
 Gaussian 16:  EM64L-G16RevB.01 20-Dec-2017

 --------------------------------
 # opt b3lyp/6-311+g(d,p) scf=xqc
 --------------------------------

 -------------------
 Title Card Required
 -------------------
 Symbolic Z-matrix:
 Charge =  0 Multiplicity = 1

 SCF Done:  E(RB3LYP) =  -3220.56461027     A.U. after   27 cycles
 SCF Done:  E(RB3LYP) =  -3220.66983541     A.U. after   20 cycles
 SCF Done:  E(RB3LYP) =  -3220.76262977     A.U. after   20 cycles
 SCF Done:  E(RB3LYP) =  -3220.77577909     A.U. after   20 cycles
 SCF Done:  E(RB3LYP) =  -3220.84133480     A.U. after   20 cycles
 SCF Done:  E(RB3LYP) =  -3220.74087946     A.U. after   18 cycles
 SCF Done:  E(RB3LYP) =  -3220.87963842     A.U. after   17 cycles
 SCF Done:  E(RB3LYP) =  -3220.93125424     A.U. after   17 cycles
 SCF Done:  E(RB3LYP) =  -3220.96638903     A.U. after   16 cycles
 SCF Done:  E(RB3LYP) =  -3220.99991657     A.U. after   17 cycles
 SCF Done:  E(RB3LYP) =  -3221.12929934     A.U. after   12 cycles
 SCF Done:  E(RB3LYP) =  -3221.12931693     A.U. after   12 cycles
 SCF Done:  E(RB3LYP) =  -3221.12934254     A.U. after   13 cycles
 SCF Done:  E(RB3LYP) =  -3221.12936793     A.U. after   13 cycles
 SCF Done:  E(RB3LYP) =  -3221.12940513     A.U. after   13 cycles
 SCF Done:  E(RB3LYP) =  -3221.12942608     A.U. after   12 cycles
 SCF Done:  E(RB3LYP) =  -3221.12943601     A.U. after   12 cycles
 SCF Done:  E(RB3LYP) =  -3221.12943868     A.U. after   11 cycles
 SCF Done:  E(RB3LYP) =  -3221.12943891     A.U. after   11 cycles
 SCF Done:  E(RB3LYP) =  -3221.12943895     A.U. after   11 cycles
 Optimization completed.
    -- Stationary point found.

                         Standard orientation:
 ---------------------------------------------------------------------
 Center     Atomic      Atomic             Coordinates (Angstroms)
 Number     Number       Type             X           Y           Z
 ---------------------------------------------------------------------
      1          6           0       -1.179082    0.104497    0.711160
      2          6           0       -1.605107    0.099230    2.040413
      3          6           0       -2.949911   -0.060213    2.354790
      4          6           0       -3.887705   -0.216043    1.341051
      5          6           0       -3.478701   -0.212312    0.010085
      6          6           0       -2.125975   -0.052269   -0.310822
      7          6           0        0.270484    0.286143    0.404123
      8          6           0        0.823556    1.558980    0.227377
      9          6           0        2.173150    1.744993   -0.036961
     10          6           0        3.009975    0.640679   -0.129855
     11          6           0        2.506369   -0.654491    0.039517
     12          6           0        1.137909   -0.812605    0.305835
     13          1           0       -0.870412    0.221096    2.827140
     14          1           0       -3.270824   -0.063225    3.389389
     15          1           0       -4.938499   -0.341108    1.568387
     16          1           0        2.573753    2.739721   -0.170843
     17         17           0        0.482698   -2.414668    0.514981
     18         17           0       -1.602239   -0.046472   -1.975466
     19         17           0        3.556761   -2.031605   -0.075000
     20         17           0       -4.687747   -0.410201   -1.235651
     21         17           0        4.699402    0.915757   -0.461868
     22         17           0       -0.193804    2.980364    0.329807
 ---------------------------------------------------------------------

 The electronic state is 1-A.
 Alpha  occ. eigenvalues -- -101.57975-101.57898-101.57804-101.57664-101.57078
 Alpha  occ. eigenvalues -- -101.56944 -10.28104 -10.27888 -10.27827 -10.27428
 Alpha  occ. eigenvalues --  -10.26719 -10.26440 -10.23901 -10.22858 -10.22275
 Alpha  occ. eigenvalues --  -10.21059 -10.20786 -10.20638  -9.49432  -9.49361
 Alpha  occ. eigenvalues --   -9.49281  -9.49133  -9.48553  -9.48404  -7.25925
 Alpha  occ. eigenvalues --   -7.25865  -7.25772  -7.25612  -7.25033  -7.24910
 Alpha  occ. eigenvalues --   -7.24886  -7.24847  -7.24840  -7.24764  -7.24759
 Alpha  occ. eigenvalues --   -7.24684  -7.24612  -7.24560  -7.24036  -7.23972
 Alpha  occ. eigenvalues --   -7.23886  -7.23828  -0.96133  -0.93580  -0.91103
 Alpha  occ. eigenvalues --   -0.90585  -0.87600  -0.87220  -0.86108  -0.83797
 Alpha  occ. eigenvalues --   -0.80039  -0.75814  -0.75351  -0.74525  -0.66382
 Alpha  occ. eigenvalues --   -0.63931  -0.62823  -0.61564  -0.55226  -0.54860
 Alpha  occ. eigenvalues --   -0.52787  -0.51617  -0.49590  -0.48217  -0.47025
 Alpha  occ. eigenvalues --   -0.46398  -0.45903  -0.45737  -0.43901  -0.43406
 Alpha  occ. eigenvalues --   -0.42113  -0.40353  -0.39777  -0.39646  -0.38765
 Alpha  occ. eigenvalues --   -0.36278  -0.35903  -0.35642  -0.35319  -0.34472
 Alpha  occ. eigenvalues --   -0.34251  -0.33887  -0.32889  -0.32132  -0.32119
 Alpha  occ. eigenvalues --   -0.27832  -0.27806  -0.26872  -0.26663
 Alpha virt. eigenvalues --   -0.06144  -0.05850  -0.05129  -0.04624  -0.04333
 Alpha virt. eigenvalues --   -0.02057  -0.00655  -0.00025   0.00754   0.01148
 Alpha virt. eigenvalues --    0.01885   0.02388   0.02563   0.02659   0.03432

 Mulliken charges:
               1
     1  C   -0.109464
     2  C   -0.335568
     3  C   -0.544781
     4  C   -0.508720
     5  C    1.032312
     6  C   -1.890604
     7  C    0.445391
     8  C   -0.357346
     9  C   -0.749271
    10  C    0.061137
    11  C    0.721675
    12  C   -1.542704
    13  H    0.131361
    14  H    0.140227
    15  H    0.154590
    16  H    0.173324
    17  Cl   0.617939
    18  Cl   0.542465
    19  Cl   0.593393
    20  Cl   0.463488
    21  Cl   0.529551
    22  Cl   0.431604
 Sum of Mulliken charges =  -0.00000

 Dipole moment (field-independent basis, Debye):
    X=             -0.4954    Y=              0.8021    Z=              2.4332  Tot=              2.6094
 Quadrupole moment (field-independent basis, Debye-Ang):
   XX=           -143.2284   YY=           -145.4895   ZZ=           -139.3761
   XY=              3.2349   XZ=             -7.7836   YZ=             -0.4101

 Normal termination of Gaussian 16 at Sun Apr  3 10:38:08 2022.
