 Gaussian 16, Revision B.01,
 Gaussian 16:  EM64L-G16RevB.01 20-Dec-2017

 --------------------------------
 # opt b3lyp/6-311+g(d,p) scf=xqc
 --------------------------------

 -------------------
 Title Card Required
 -------------------
 Symbolic Z-matrix:
 Charge =  0 Multiplicity = 1

 SCF Done:  E(RB3LYP) =  -2300.27986642     A.U. after   20 cycles
 SCF Done:  E(RB3LYP) =  -2300.78781287     A.U. after   17 cycles
 SCF Done:  E(RB3LYP) =  -2301.32090940     A.U. after   18 cycles
 SCF Done:  E(RB3LYP) =  -2301.58982600     A.U. after   20 cycles
 SCF Done:  E(RB3LYP) =  -2301.60699328     A.U. after   25 cycles
 SCF Done:  E(RB3LYP) =  -2301.64127596     A.U. after   18 cycles
 SCF Done:  E(RB3LYP) =  -2301.66667125     A.U. after   19 cycles
 SCF Done:  E(RB3LYP) =  -2301.68279286     A.U. after   17 cycles
 SCF Done:  E(RB3LYP) =  -2301.71994894     A.U. after   20 cycles
 SCF Done:  E(RB3LYP) =  -2301.75052420     A.U. after   15 cycles
 SCF Done:  E(RB3LYP) =  -2301.90337216     A.U. after   14 cycles
 SCF Done:  E(RB3LYP) =  -2301.90365235     A.U. after   13 cycles
 SCF Done:  E(RB3LYP) =  -2301.90386331     A.U. after   13 cycles
 SCF Done:  E(RB3LYP) =  -2301.90415145     A.U. after   14 cycles
 SCF Done:  E(RB3LYP) =  -2301.90425499     A.U. after   14 cycles
 SCF Done:  E(RB3LYP) =  -2301.90432671     A.U. after   14 cycles
 SCF Done:  E(RB3LYP) =  -2301.90433150     A.U. after   13 cycles
 SCF Done:  E(RB3LYP) =  -2301.90433248     A.U. after   12 cycles
 SCF Done:  E(RB3LYP) =  -2301.90433278     A.U. after   12 cycles
 SCF Done:  E(RB3LYP) =  -2301.90433300     A.U. after   12 cycles
 Optimization completed.
    -- Stationary point found.

                         Standard orientation:
 ---------------------------------------------------------------------
 Center     Atomic      Atomic             Coordinates (Angstroms)
 Number     Number       Type             X           Y           Z
 ---------------------------------------------------------------------
      1          6           0       -0.925534    0.092060    0.266995
      2          6           0       -1.783973   -0.999546    0.093114
      3          6           0       -3.161878   -0.822089    0.112235
      4          6           0       -3.720040    0.436747    0.305401
      5          6           0       -2.877500    1.528585    0.483841
      6          6           0       -1.496501    1.354628    0.465209
      7          6           0        0.549655   -0.131168    0.263542
      8          6           0        1.189347   -0.581737    1.423676
      9          6           0        2.559110   -0.818969    1.461992
     10          6           0        3.308292   -0.602237    0.310772
     11          6           0        2.713061   -0.159877   -0.864409
     12          6           0        1.340010    0.070174   -0.873817
     13          1           0       -1.366368   -1.985527   -0.065286
     14          1           0       -4.794604    0.564607    0.318068
     15          1           0       -3.291395    2.516418    0.639787
     16          1           0        0.596685   -0.741724    2.316832
     17          1           0        3.036816   -1.164024    2.369376
     18          1           0        3.300978    0.001952   -1.757117
     19         17           0        0.609797    0.616881   -2.372483
     20         17           0       -0.474003    2.760013    0.709248
     21         17           0        5.038670   -0.894317    0.332727
     22         17           0       -4.212488   -2.211466   -0.111432
 ---------------------------------------------------------------------

 The electronic state is 1-A.
 Alpha  occ. eigenvalues -- -101.56851-101.56768-101.56732-101.56627 -10.26348
 Alpha  occ. eigenvalues --  -10.26121 -10.25917 -10.25786 -10.22562 -10.22217
 Alpha  occ. eigenvalues --  -10.21171 -10.21119 -10.21094 -10.21077 -10.21032
 Alpha  occ. eigenvalues --  -10.20734  -9.48305  -9.48239  -9.48187  -9.48098
 Alpha  occ. eigenvalues --   -7.24772  -7.24706  -7.24652  -7.24563  -7.23787
 Alpha  occ. eigenvalues --   -7.23749  -7.23721  -7.23674  -7.23667  -7.23634
 Alpha  occ. eigenvalues --   -7.23580  -7.23536  -0.93412  -0.91987  -0.89312
 Alpha  occ. eigenvalues --   -0.88730  -0.84990  -0.83775  -0.80443  -0.77057
 Alpha  occ. eigenvalues --   -0.75399  -0.73451  -0.65942  -0.64255  -0.63095
 Alpha  occ. eigenvalues --   -0.60330  -0.54915  -0.52453  -0.51685  -0.51238
 Alpha  occ. eigenvalues --   -0.49108  -0.47788  -0.45879  -0.45765  -0.45416
 Alpha  occ. eigenvalues --   -0.42945  -0.42785  -0.41842  -0.39835  -0.39656
 Alpha  occ. eigenvalues --   -0.38841  -0.38183  -0.37547  -0.33944  -0.33522
 Alpha  occ. eigenvalues --   -0.33169  -0.32952  -0.32839  -0.32769  -0.28957
 Alpha  occ. eigenvalues --   -0.27930  -0.26622  -0.25923
 Alpha virt. eigenvalues --   -0.05422  -0.05088  -0.04222  -0.03885  -0.01633
 Alpha virt. eigenvalues --   -0.00857  -0.00134   0.00564   0.01090   0.01640
 Alpha virt. eigenvalues --    0.01785   0.02250   0.03370   0.03786   0.04638

 Mulliken charges:
               1
     1  C    0.331872
     2  C   -0.664855
     3  C    0.830335
     4  C   -0.560893
     5  C   -0.916799
     6  C   -0.250460
     7  C    0.696056
     8  C   -0.634887
     9  C   -0.742976
    10  C    0.941510
    11  C   -0.605578
    12  C   -0.878969
    13  H    0.146565
    14  H    0.155096
    15  H    0.155270
    16  H    0.136021
    17  H    0.154209
    18  H    0.170854
    19  Cl   0.350466
    20  Cl   0.382480
    21  Cl   0.401826
    22  Cl   0.402860
 Sum of Mulliken charges =  -0.00000

 Dipole moment (field-independent basis, Debye):
    X=             -0.8436    Y=             -0.0515    Z=              1.2450  Tot=              1.5048
 Quadrupole moment (field-independent basis, Debye-Ang):
   XX=           -120.0915   YY=           -122.0630   ZZ=           -118.5142
   XY=             -5.7047   XZ=             -0.8741   YZ=             -1.4225

 Normal termination of Gaussian 16 at Tue Mar 15 15:57:59 2022.
