 Gaussian 16, Revision B.01,
 Gaussian 16:  EM64L-G16RevB.01 20-Dec-2017

 --------------------------------
 # opt b3lyp/6-311+g(d,p) scf=xqc
 --------------------------------

 -------------------
 Title Card Required
 -------------------
 Symbolic Z-matrix:
 Charge =  0 Multiplicity = 1

 SCF Done:  E(RB3LYP) =  -2301.33113367     A.U. after   26 cycles
 SCF Done:  E(RB3LYP) =  -2301.43281231     A.U. after   20 cycles
 SCF Done:  E(RB3LYP) =  -2301.51451169     A.U. after   20 cycles
 SCF Done:  E(RB3LYP) =  -2301.50385185     A.U. after   26 cycles
 SCF Done:  E(RB3LYP) =  -2301.58175118     A.U. after   19 cycles
 SCF Done:  E(RB3LYP) =  -2301.62823948     A.U. after   21 cycles
 SCF Done:  E(RB3LYP) =  -2301.63298291     A.U. after   17 cycles
 SCF Done:  E(RB3LYP) =  -2301.65090773     A.U. after   25 cycles
 SCF Done:  E(RB3LYP) =  -2301.55270068     A.U. after   27 cycles
 SCF Done:  E(RB3LYP) =  -2301.65377908     A.U. after   22 cycles
 SCF Done:  E(RB3LYP) =  -2301.89732478     A.U. after   14 cycles
 SCF Done:  E(RB3LYP) =  -2301.89754846     A.U. after   13 cycles
 SCF Done:  E(RB3LYP) =  -2301.89755444     A.U. after   14 cycles
 SCF Done:  E(RB3LYP) =  -2301.89780380     A.U. after   13 cycles
 SCF Done:  E(RB3LYP) =  -2301.89788075     A.U. after   13 cycles
 SCF Done:  E(RB3LYP) =  -2301.89791802     A.U. after   13 cycles
 SCF Done:  E(RB3LYP) =  -2301.89794885     A.U. after   12 cycles
 SCF Done:  E(RB3LYP) =  -2301.89796314     A.U. after   12 cycles
 SCF Done:  E(RB3LYP) =  -2301.89796489     A.U. after   11 cycles
 SCF Done:  E(RB3LYP) =  -2301.89796513     A.U. after   10 cycles
 Optimization completed.
    -- Stationary point found.

                         Standard orientation:
 ---------------------------------------------------------------------
 Center     Atomic      Atomic             Coordinates (Angstroms)
 Number     Number       Type             X           Y           Z
 ---------------------------------------------------------------------
      1          6           0        1.212405    0.000765   -0.244365
      2          6           0        1.924521    1.192207   -0.044352
      3          6           0        3.264488    1.203568    0.328640
      4          6           0        3.928614   -0.004620    0.510239
      5          6           0        3.261810   -1.210087    0.320698
      6          6           0        1.921813   -1.193539   -0.052146
      7          6           0       -0.218256    0.003658   -0.669412
      8          6           0       -0.531080    0.011093   -2.030003
      9          6           0       -1.854122    0.013380   -2.456932
     10          6           0       -2.885555    0.008437   -1.525530
     11          6           0       -2.590860    0.001555   -0.164847
     12          6           0       -1.260273   -0.000755    0.268736
     13          1           0        3.772591    2.147668    0.473651
     14          1           0        4.972190   -0.006872    0.801857
     15          1           0        3.768089   -2.156111    0.459464
     16          1           0        0.276574    0.015220   -2.751958
     17          1           0       -2.085430    0.019028   -3.515230
     18          1           0       -3.921178    0.010059   -1.840135
     19         17           0       -0.882719   -0.008359    1.973019
     20         17           0        1.107573   -2.732615   -0.279130
     21         17           0       -3.916026   -0.004052    0.975496
     22         17           0        1.113297    2.734264   -0.261857
 ---------------------------------------------------------------------

 The electronic state is 1-A.
 Alpha  occ. eigenvalues -- -101.56540-101.56540-101.56419-101.56418 -10.26095
 Alpha  occ. eigenvalues --  -10.26095 -10.26049 -10.25829 -10.22592 -10.22083
 Alpha  occ. eigenvalues --  -10.20727 -10.20471 -10.20464 -10.20450 -10.20100
 Alpha  occ. eigenvalues --  -10.20017  -9.48012  -9.48011  -9.47895  -9.47879
 Alpha  occ. eigenvalues --   -7.24478  -7.24478  -7.24374  -7.24359  -7.23497
 Alpha  occ. eigenvalues --   -7.23496  -7.23446  -7.23445  -7.23378  -7.23361
 Alpha  occ. eigenvalues --   -7.23313  -7.23304  -0.93675  -0.91961  -0.88714
 Alpha  occ. eigenvalues --   -0.86910  -0.85530  -0.84131  -0.79949  -0.75112
 Alpha  occ. eigenvalues --   -0.74854  -0.74711  -0.66014  -0.62207  -0.62161
 Alpha  occ. eigenvalues --   -0.61309  -0.54845  -0.52442  -0.51205  -0.50921
 Alpha  occ. eigenvalues --   -0.48796  -0.47144  -0.45417  -0.45311  -0.45188
 Alpha  occ. eigenvalues --   -0.42833  -0.42648  -0.41095  -0.39439  -0.39142
 Alpha  occ. eigenvalues --   -0.38460  -0.37762  -0.35480  -0.34772  -0.33776
 Alpha  occ. eigenvalues --   -0.33596  -0.33174  -0.32484  -0.31612  -0.27589
 Alpha  occ. eigenvalues --   -0.27157  -0.26448  -0.26054
 Alpha virt. eigenvalues --   -0.04666  -0.04518  -0.04327  -0.03527  -0.02132
 Alpha virt. eigenvalues --   -0.00938  -0.00288   0.00994   0.01786   0.02286
 Alpha virt. eigenvalues --    0.02301   0.02898   0.03207   0.04313   0.04885

 Mulliken charges:
               1
     1  C    0.298489
     2  C   -0.299463
     3  C   -0.018774
     4  C   -0.319357
     5  C   -0.020227
     6  C   -0.301319
     7  C   -0.177739
     8  C   -0.369178
     9  C   -0.603203
    10  C   -0.350099
    11  C    0.890438
    12  C   -1.430318
    13  H    0.149842
    14  H    0.141472
    15  H    0.149859
    16  H    0.130480
    17  H    0.138015
    18  H    0.152804
    19  Cl   0.545770
    20  Cl   0.417651
    21  Cl   0.456308
    22  Cl   0.418550
 Sum of Mulliken charges =  -0.00000

 Dipole moment (field-independent basis, Debye):
    X=              2.1858    Y=              0.0082    Z=             -1.8951  Tot=              2.8929
 Quadrupole moment (field-independent basis, Debye-Ang):
   XX=           -106.4625   YY=           -123.6541   ZZ=           -115.6149
   XY=             -0.0481   XZ=              7.9911   YZ=             -0.0473

 Normal termination of Gaussian 16 at Sat Apr 23 18:31:19 2022.
