 Gaussian 16, Revision B.01,
 Gaussian 16:  EM64L-G16RevB.01 20-Dec-2017

 --------------------------------
 # opt b3lyp/6-311+g(d,p) scf=xqc
 --------------------------------

 -------------------
 Title Card Required
 -------------------
 Symbolic Z-matrix:
 Charge =  0 Multiplicity = 1

 SCF Done:  E(RB3LYP) =  -3680.18781921     A.U. after   27 cycles
 SCF Done:  E(RB3LYP) =  -3680.27685980     A.U. after   22 cycles
 SCF Done:  E(RB3LYP) =  -3680.41862021     A.U. after   19 cycles
 SCF Done:  E(RB3LYP) =  -3680.45400539     A.U. after   19 cycles
 SCF Done:  E(RB3LYP) =  -3680.49295674     A.U. after   20 cycles
 SCF Done:  E(RB3LYP) =  -3680.49194508     A.U. after   17 cycles
 SCF Done:  E(RB3LYP) =  -3680.55423645     A.U. after   17 cycles
 SCF Done:  E(RB3LYP) =  -3680.57608521     A.U. after   16 cycles
 SCF Done:  E(RB3LYP) =  -3680.53706431     A.U. after   17 cycles
 SCF Done:  E(RB3LYP) =  -3680.60555364     A.U. after   16 cycles
 SCF Done:  E(RB3LYP) =  -3680.74927909     A.U. after   12 cycles
 SCF Done:  E(RB3LYP) =  -3680.74929548     A.U. after   12 cycles
 SCF Done:  E(RB3LYP) =  -3680.74931001     A.U. after   12 cycles
 SCF Done:  E(RB3LYP) =  -3680.74933556     A.U. after   12 cycles
 SCF Done:  E(RB3LYP) =  -3680.74934738     A.U. after   12 cycles
 SCF Done:  E(RB3LYP) =  -3680.74935237     A.U. after   12 cycles
 SCF Done:  E(RB3LYP) =  -3680.74935287     A.U. after   11 cycles
 SCF Done:  E(RB3LYP) =  -3680.74935333     A.U. after   11 cycles
 SCF Done:  E(RB3LYP) =  -3680.74935350     A.U. after   10 cycles
 SCF Done:  E(RB3LYP) =  -3680.74935357     A.U. after   10 cycles
 Optimization completed.
    -- Stationary point found.

                         Standard orientation:
 ---------------------------------------------------------------------
 Center     Atomic      Atomic             Coordinates (Angstroms)
 Number     Number       Type             X           Y           Z
 ---------------------------------------------------------------------
      1          6           0       -0.791293    0.000300   -0.221062
      2          6           0       -1.426126    0.000604   -1.463100
      3          6           0       -2.813003    0.000558   -1.529396
      4          6           0       -3.587308    0.000178   -0.377089
      5          6           0       -2.955646   -0.000174    0.863319
      6          6           0       -1.558746   -0.000138    0.951275
      7          6           0        0.702330    0.000086   -0.172510
      8          6           0        1.413769    1.209035   -0.161574
      9          6           0        2.812225    1.204240   -0.137510
     10          6           0        3.503755   -0.000033   -0.125723
     11          6           0        2.812087   -1.204278   -0.138086
     12          6           0        1.413678   -1.209019   -0.162013
     13          1           0       -0.836242    0.000834   -2.369993
     14          1           0       -4.666941    0.000129   -0.433164
     15          1           0        4.584717   -0.000133   -0.107350
     16         17           0        0.540072   -2.716001   -0.170982
     17         17           0       -0.764026   -0.000738    2.502004
     18         17           0        3.730677   -2.685351   -0.124606
     19         17           0       -3.952756   -0.000740    2.294513
     20         17           0        3.730801    2.685287   -0.123162
     21         17           0       -3.603638    0.000903   -3.093076
     22         17           0        0.540289    2.716112   -0.169907
 ---------------------------------------------------------------------

 The electronic state is 1-A.
 Alpha  occ. eigenvalues -- -101.58177-101.58176-101.58148-101.58147-101.57731
 Alpha  occ. eigenvalues -- -101.57721-101.57544 -10.28150 -10.28150 -10.27932
 Alpha  occ. eigenvalues --  -10.27932 -10.27561 -10.27406 -10.26915 -10.24779
 Alpha  occ. eigenvalues --  -10.23984 -10.22963 -10.22250 -10.21965  -9.49632
 Alpha  occ. eigenvalues --   -9.49632  -9.49620  -9.49619  -9.49194  -9.49189
 Alpha  occ. eigenvalues --   -9.48998  -7.26125  -7.26125  -7.26111  -7.26110
 Alpha  occ. eigenvalues --   -7.25679  -7.25679  -7.25472  -7.25108  -7.25108
 Alpha  occ. eigenvalues --   -7.25099  -7.25099  -7.25049  -7.25049  -7.25027
 Alpha  occ. eigenvalues --   -7.25027  -7.24672  -7.24668  -7.24610  -7.24608
 Alpha  occ. eigenvalues --   -7.24473  -7.24438  -0.96550  -0.94673  -0.92419
 Alpha  occ. eigenvalues --   -0.90608  -0.89906  -0.88091  -0.88070  -0.85179
 Alpha  occ. eigenvalues --   -0.84212  -0.80217  -0.76589  -0.74812  -0.74595
 Alpha  occ. eigenvalues --   -0.68671  -0.63483  -0.62782  -0.62261  -0.55331
 Alpha  occ. eigenvalues --   -0.54968  -0.53789  -0.53645  -0.50439  -0.48447
 Alpha  occ. eigenvalues --   -0.47334  -0.47185  -0.46693  -0.46116  -0.45104
 Alpha  occ. eigenvalues --   -0.44058  -0.42827  -0.41701  -0.41389  -0.41233
 Alpha  occ. eigenvalues --   -0.39478  -0.37970  -0.37006  -0.36415  -0.35995
 Alpha  occ. eigenvalues --   -0.35051  -0.34987  -0.33918  -0.33815  -0.33583
 Alpha  occ. eigenvalues --   -0.33394  -0.32771  -0.32666  -0.28620  -0.28523
 Alpha  occ. eigenvalues --   -0.26875  -0.26674
 Alpha virt. eigenvalues --   -0.06671  -0.06324  -0.06014  -0.05145  -0.04689
 Alpha virt. eigenvalues --   -0.02764  -0.01062  -0.00748   0.00071   0.00403
 Alpha virt. eigenvalues --    0.01237   0.01965   0.02256   0.02329   0.02859

 Mulliken charges:
               1
     1  C   -0.966993
     2  C   -0.687165
     3  C    0.606960
     4  C   -0.938510
     5  C    0.437255
     6  C   -0.658220
     7  C   -0.545365
     8  C   -0.879514
     9  C    0.540376
    10  C   -0.760705
    11  C    0.541035
    12  C   -0.879908
    13  H    0.146273
    14  H    0.174437
    15  H    0.176111
    16  Cl   0.595218
    17  Cl   0.587107
    18  Cl   0.501768
    19  Cl   0.472320
    20  Cl   0.501757
    21  Cl   0.440451
    22  Cl   0.595312
 Sum of Mulliken charges =  -0.00000

 Dipole moment (field-independent basis, Debye):
    X=              0.5688    Y=              0.0002    Z=             -0.7906  Tot=              0.9739
 Quadrupole moment (field-independent basis, Debye-Ang):
   XX=           -149.6794   YY=           -160.9312   ZZ=           -159.2425
   XY=              0.0002   XZ=              0.1412   YZ=             -0.0005

 Normal termination of Gaussian 16 at Sun Apr  3 06:28:18 2022.
