 Gaussian 16, Revision B.01,
 Gaussian 16:  EM64L-G16RevB.01 20-Dec-2017

 --------------------------------
 # opt b3lyp/6-311+g(d,p) scf=xqc
 --------------------------------

 -------------------
 Title Card Required
 -------------------
 Symbolic Z-matrix:
 Charge =  0 Multiplicity = 1

 SCF Done:  E(RB3LYP) =  -2300.27488018     A.U. after   19 cycles
 SCF Done:  E(RB3LYP) =  -2300.78273260     A.U. after   17 cycles
 SCF Done:  E(RB3LYP) =  -2301.31597346     A.U. after   18 cycles
 SCF Done:  E(RB3LYP) =  -2301.58587598     A.U. after   20 cycles
 SCF Done:  E(RB3LYP) =  -2301.60523708     A.U. after   24 cycles
 SCF Done:  E(RB3LYP) =  -2301.63806265     A.U. after   19 cycles
 SCF Done:  E(RB3LYP) =  -2301.66172599     A.U. after   18 cycles
 SCF Done:  E(RB3LYP) =  -2301.67841004     A.U. after   18 cycles
 SCF Done:  E(RB3LYP) =  -2301.71473121     A.U. after   19 cycles
 SCF Done:  E(RB3LYP) =  -2301.74702538     A.U. after   15 cycles
 SCF Done:  E(RB3LYP) =  -2301.89860236     A.U. after   14 cycles
 SCF Done:  E(RB3LYP) =  -2301.89908325     A.U. after   14 cycles
 SCF Done:  E(RB3LYP) =  -2301.89950052     A.U. after   15 cycles
 SCF Done:  E(RB3LYP) =  -2301.89970298     A.U. after   15 cycles
 SCF Done:  E(RB3LYP) =  -2301.89973280     A.U. after   13 cycles
 SCF Done:  E(RB3LYP) =  -2301.89974924     A.U. after   13 cycles
 SCF Done:  E(RB3LYP) =  -2301.89977127     A.U. after   13 cycles
 SCF Done:  E(RB3LYP) =  -2301.89978391     A.U. after   13 cycles
 SCF Done:  E(RB3LYP) =  -2301.89978549     A.U. after   12 cycles
 SCF Done:  E(RB3LYP) =  -2301.89978560     A.U. after   11 cycles
 Optimization completed.
    -- Stationary point found.

                         Standard orientation:
 ---------------------------------------------------------------------
 Center     Atomic      Atomic             Coordinates (Angstroms)
 Number     Number       Type             X           Y           Z
 ---------------------------------------------------------------------
      1          6           0       -0.210805    0.070671    0.286928
      2          6           0        0.695039    1.123225    0.139840
      3          6           0        2.066660    0.902884    0.053892
      4          6           0        2.559282   -0.402964    0.117762
      5          6           0        1.674956   -1.467007    0.269459
      6          6           0        0.308689   -1.227458    0.353123
      7          6           0       -1.669021    0.366089    0.395483
      8          6           0       -2.205609    0.774589    1.622688
      9          6           0       -3.557760    1.074192    1.756803
     10          6           0       -4.401605    0.971188    0.653355
     11          6           0       -3.892167    0.572968   -0.578970
     12          6           0       -2.537476    0.275267   -0.698478
     13          1           0        0.322689    2.137977    0.082090
     14          1           0        2.055440   -2.477553    0.324037
     15          1           0       -1.545472    0.847428    2.479441
     16          1           0       -3.949146    1.384703    2.718273
     17          1           0       -5.456592    1.201549    0.745876
     18          1           0       -4.534581    0.493476   -1.446541
     19         17           0       -0.758754   -2.602146    0.558020
     20         17           0       -1.925521   -0.209470   -2.273432
     21         17           0        4.267123   -0.744367    0.016374
     22         17           0        3.130480    2.274251   -0.132402
 ---------------------------------------------------------------------

 The electronic state is 1-A.
 Alpha  occ. eigenvalues -- -101.57251-101.57125-101.56817-101.56245 -10.26845
 Alpha  occ. eigenvalues --  -10.26520 -10.26352 -10.25493 -10.22540 -10.21814
 Alpha  occ. eigenvalues --  -10.21604 -10.21511 -10.20223 -10.20186 -10.20058
 Alpha  occ. eigenvalues --  -10.19735  -9.48707  -9.48581  -9.48286  -9.47718
 Alpha  occ. eigenvalues --   -7.25193  -7.25066  -7.24757  -7.24187  -7.24177
 Alpha  occ. eigenvalues --   -7.24129  -7.24059  -7.24005  -7.23766  -7.23720
 Alpha  occ. eigenvalues --   -7.23203  -7.23159  -0.94229  -0.91468  -0.89664
 Alpha  occ. eigenvalues --   -0.87645  -0.85410  -0.84159  -0.80103  -0.76377
 Alpha  occ. eigenvalues --   -0.75375  -0.73440  -0.65867  -0.64033  -0.62817
 Alpha  occ. eigenvalues --   -0.60068  -0.54866  -0.52864  -0.52090  -0.49637
 Alpha  occ. eigenvalues --   -0.49106  -0.47598  -0.46000  -0.45569  -0.44843
 Alpha  occ. eigenvalues --   -0.44096  -0.42028  -0.41805  -0.40165  -0.39059
 Alpha  occ. eigenvalues --   -0.38155  -0.37958  -0.36319  -0.34929  -0.34467
 Alpha  occ. eigenvalues --   -0.33096  -0.32915  -0.32514  -0.32369  -0.28254
 Alpha  occ. eigenvalues --   -0.27878  -0.26496  -0.25961
 Alpha virt. eigenvalues --   -0.05485  -0.04992  -0.03861  -0.03494  -0.02464
 Alpha virt. eigenvalues --   -0.00737   0.00003   0.00598   0.01382   0.01741
 Alpha virt. eigenvalues --    0.02154   0.02738   0.03501   0.03869   0.04560

 Mulliken charges:
               1
     1  C    0.410433
     2  C   -0.838392
     3  C    0.204224
     4  C    0.055625
     5  C   -0.457936
     6  C   -0.883506
     7  C    1.007129
     8  C   -0.659609
     9  C   -0.194671
    10  C   -0.118994
    11  C   -0.651008
    12  C   -0.514663
    13  H    0.150163
    14  H    0.172124
    15  H    0.129331
    16  H    0.134320
    17  H    0.136301
    18  H    0.150024
    19  Cl   0.371150
    20  Cl   0.388937
    21  Cl   0.494762
    22  Cl   0.514256
 Sum of Mulliken charges =  -0.00000

 Dipole moment (field-independent basis, Debye):
    X=             -2.3288    Y=              0.7877    Z=              1.4899  Tot=              2.8746
 Quadrupole moment (field-independent basis, Debye-Ang):
   XX=           -113.4650   YY=           -120.1928   ZZ=           -118.9889
   XY=             -6.5063   XZ=             -2.8177   YZ=              1.9136

 Normal termination of Gaussian 16 at Tue Mar 15 15:44:55 2022.
