 Gaussian 16, Revision B.01,
 Gaussian 16:  EM64L-G16RevB.01 20-Dec-2017

 --------------------------------
 # opt b3lyp/6-311+g(d,p) scf=xqc
 --------------------------------

 -------------------
 Title Card Required
 -------------------
 Symbolic Z-matrix:
 Charge =  0 Multiplicity = 1

 SCF Done:  E(RB3LYP) =  -2760.89496328     A.U. after   23 cycles
 SCF Done:  E(RB3LYP) =  -2760.37428983     A.U. after   23 cycles
 SCF Done:  E(RB3LYP) =  -2760.97692774     A.U. after   19 cycles
 SCF Done:  E(RB3LYP) =  -2761.03721908     A.U. after   18 cycles
 SCF Done:  E(RB3LYP) =  -2761.12583627     A.U. after   20 cycles
 SCF Done:  E(RB3LYP) =  -2761.20760308     A.U. after   18 cycles
 SCF Done:  E(RB3LYP) =  -2761.24277157     A.U. after   18 cycles
 SCF Done:  E(RB3LYP) =  -2761.25996762     A.U. after   19 cycles
 SCF Done:  E(RB3LYP) =  -2761.27375430     A.U. after   20 cycles
 SCF Done:  E(RB3LYP) =  -2761.25625089     A.U. after   23 cycles
 SCF Done:  E(RB3LYP) =  -2761.51337752     A.U. after   13 cycles
 SCF Done:  E(RB3LYP) =  -2761.51367732     A.U. after   13 cycles
 SCF Done:  E(RB3LYP) =  -2761.51395697     A.U. after   12 cycles
 SCF Done:  E(RB3LYP) =  -2761.51409372     A.U. after   13 cycles
 SCF Done:  E(RB3LYP) =  -2761.51416245     A.U. after   12 cycles
 SCF Done:  E(RB3LYP) =  -2761.51420361     A.U. after   12 cycles
 SCF Done:  E(RB3LYP) =  -2761.51422474     A.U. after   12 cycles
 SCF Done:  E(RB3LYP) =  -2761.51422950     A.U. after   10 cycles
 SCF Done:  E(RB3LYP) =  -2761.51423044     A.U. after   10 cycles
 SCF Done:  E(RB3LYP) =  -2761.51423057     A.U. after   10 cycles
 Optimization completed.
    -- Stationary point found.

                         Standard orientation:
 ---------------------------------------------------------------------
 Center     Atomic      Atomic             Coordinates (Angstroms)
 Number     Number       Type             X           Y           Z
 ---------------------------------------------------------------------
      1          6           0        1.634154   -0.008672   -0.303472
      2          6           0        2.364200    1.187673   -0.252425
      3          6           0        3.746547    1.207950   -0.099923
      4          6           0        4.435413    0.004500    0.005228
      5          6           0        3.751636   -1.205432   -0.042874
      6          6           0        2.369216   -1.198129   -0.196110
      7          6           0        0.154409   -0.015951   -0.493122
      8          6           0       -0.376373   -0.055278   -1.782936
      9          6           0       -1.746673   -0.061835   -1.995432
     10          6           0       -2.615421   -0.028804   -0.909833
     11          6           0       -2.117045    0.010966    0.398154
     12          6           0       -0.726759    0.016957    0.593736
     13          1           0        4.268193    2.155096   -0.063964
     14          1           0        5.512259    0.009605    0.125381
     15          1           0        4.277236   -2.147614    0.037869
     16          1           0        0.298178   -0.080933   -2.629926
     17          1           0       -2.151600   -0.092378   -2.998194
     18         17           0       -0.075909    0.065285    2.211567
     19         17           0        1.533795   -2.741331   -0.250387
     20         17           0       -3.201695    0.052032    1.754764
     21         17           0       -4.334029   -0.038258   -1.218461
     22         17           0        1.522303    2.723011   -0.379666
 ---------------------------------------------------------------------

 The electronic state is 1-A.
 Alpha  occ. eigenvalues -- -101.57133-101.57084-101.57010-101.56881-101.56877
 Alpha  occ. eigenvalues --  -10.27055 -10.26938 -10.26717 -10.26442 -10.26440
 Alpha  occ. eigenvalues --  -10.22976 -10.22607 -10.21044 -10.21033 -10.20972
 Alpha  occ. eigenvalues --  -10.20785 -10.20779  -9.48598  -9.48543  -9.48487
 Alpha  occ. eigenvalues --   -9.48352  -9.48348  -7.25098  -7.25028  -7.24971
 Alpha  occ. eigenvalues --   -7.24818  -7.24815  -7.24080  -7.24024  -7.23998
 Alpha  occ. eigenvalues --   -7.23969  -7.23963  -7.23899  -7.23836  -7.23832
 Alpha  occ. eigenvalues --   -7.23785  -7.23782  -0.94864  -0.92933  -0.89494
 Alpha  occ. eigenvalues --   -0.89060  -0.87251  -0.84962  -0.84444  -0.79812
 Alpha  occ. eigenvalues --   -0.75705  -0.75441  -0.74323  -0.65658  -0.63612
 Alpha  occ. eigenvalues --   -0.62551  -0.61442  -0.55364  -0.52866  -0.52211
 Alpha  occ. eigenvalues --   -0.51561  -0.49076  -0.47751  -0.46158  -0.45994
 Alpha  occ. eigenvalues --   -0.45639  -0.44478  -0.43195  -0.42208  -0.40474
 Alpha  occ. eigenvalues --   -0.39920  -0.39377  -0.38467  -0.37574  -0.35924
 Alpha  occ. eigenvalues --   -0.34730  -0.33986  -0.33951  -0.33628  -0.33508
 Alpha  occ. eigenvalues --   -0.32679  -0.31456  -0.27953  -0.26922  -0.26709
 Alpha  occ. eigenvalues --   -0.26666
 Alpha virt. eigenvalues --   -0.05215  -0.05018  -0.04881  -0.04201  -0.03458
 Alpha virt. eigenvalues --   -0.01685  -0.00531   0.01012   0.01590   0.01678
 Alpha virt. eigenvalues --    0.02070   0.02374   0.02782   0.03313   0.04383

 Mulliken charges:
               1
     1  C    0.046663
     2  C   -0.279400
     3  C   -0.027340
     4  C   -0.304841
     5  C   -0.031046
     6  C   -0.277103
     7  C    0.099923
     8  C   -0.469618
     9  C   -1.115365
    10  C    0.246270
    11  C    0.460085
    12  C   -1.437372
    13  H    0.150640
    14  H    0.142622
    15  H    0.150611
    16  H    0.135205
    17  H    0.157188
    18  Cl   0.474542
    19  Cl   0.390284
    20  Cl   0.603617
    21  Cl   0.496741
    22  Cl   0.387695
 Sum of Mulliken charges =  -0.00000

 Dipole moment (field-independent basis, Debye):
    X=              3.2228    Y=             -0.0464    Z=             -1.6835  Tot=              3.6363
 Quadrupole moment (field-independent basis, Debye-Ang):
   XX=           -120.3649   YY=           -134.9750   ZZ=           -129.4450
   XY=              0.0870   XZ=              2.2209   YZ=              0.1789

 Normal termination of Gaussian 16 at Thu Apr  7 01:38:40 2022.
