 Gaussian 16, Revision B.01,
 Gaussian 16:  EM64L-G16RevB.01 20-Dec-2017

 --------------------------------
 # opt b3lyp/6-311+g(d,p) scf=xqc
 --------------------------------

 -------------------
 Title Card Required
 -------------------
 Symbolic Z-matrix:
 Charge =  0 Multiplicity = 1

 SCF Done:  E(RB3LYP) =  -2301.32693115     A.U. after   27 cycles
 SCF Done:  E(RB3LYP) =  -2301.43489995     A.U. after   20 cycles
 SCF Done:  E(RB3LYP) =  -2301.51714068     A.U. after   19 cycles
 SCF Done:  E(RB3LYP) =  -2301.50472959     A.U. after   30 cycles
 SCF Done:  E(RB3LYP) =  -2301.58612143     A.U. after   19 cycles
 SCF Done:  E(RB3LYP) =  -2301.61789492     A.U. after   26 cycles
 SCF Done:  E(RB3LYP) =  -2301.63837047     A.U. after   22 cycles
 SCF Done:  E(RB3LYP) =  -2301.66820672     A.U. after   18 cycles
 SCF Done:  E(RB3LYP) =  -2299.38502315     A.U. after   26 cycles
 SCF Done:  E(RB3LYP) =  -2301.36044341     A.U. after   17 cycles
 SCF Done:  E(RB3LYP) =  -2301.90227904     A.U. after   10 cycles
 SCF Done:  E(RB3LYP) =  -2301.90227956     A.U. after   10 cycles
 SCF Done:  E(RB3LYP) =  -2301.90227995     A.U. after   10 cycles
 SCF Done:  E(RB3LYP) =  -2301.90228050     A.U. after   11 cycles
 SCF Done:  E(RB3LYP) =  -2301.90228130     A.U. after   11 cycles
 SCF Done:  E(RB3LYP) =  -2301.90228223     A.U. after   11 cycles
 SCF Done:  E(RB3LYP) =  -2301.90228308     A.U. after   11 cycles
 SCF Done:  E(RB3LYP) =  -2301.90228382     A.U. after   10 cycles
 SCF Done:  E(RB3LYP) =  -2301.90228420     A.U. after   10 cycles
 SCF Done:  E(RB3LYP) =  -2301.90228431     A.U. after    9 cycles
 Optimization completed.
    -- Stationary point found.

                         Standard orientation:
 ---------------------------------------------------------------------
 Center     Atomic      Atomic             Coordinates (Angstroms)
 Number     Number       Type             X           Y           Z
 ---------------------------------------------------------------------
      1          6           0        1.263590    0.000298    0.280087
      2          6           0        2.001252    1.193253    0.288430
      3          6           0        3.392077    1.207776    0.303990
      4          6           0        4.083145    0.001116    0.312106
      5          6           0        3.392728   -1.205941    0.305752
      6          6           0        2.001912   -1.192221    0.290175
      7          6           0       -0.227157    0.000141    0.282539
      8          6           0       -0.925241    0.001571    1.494333
      9          6           0       -2.314448    0.001625    1.538809
     10          6           0       -3.022515    0.000264    0.341734
     11          6           0       -2.368485   -0.001163   -0.883993
     12          6           0       -0.976505   -0.001199   -0.898039
     13          1           0        3.918486    2.152961    0.308506
     14          1           0        5.166657    0.001424    0.323228
     15          1           0        3.919663   -2.150832    0.311610
     16          1           0       -0.363132    0.002637    2.420796
     17          1           0       -2.838920    0.002753    2.485100
     18          1           0       -2.925333   -0.002257   -1.810593
     19         17           0       -0.169096   -0.003339   -2.455276
     20         17           0        1.159981   -2.733173    0.279848
     21         17           0       -4.777661    0.000314    0.371589
     22         17           0        1.158568    2.733856    0.275946
 ---------------------------------------------------------------------

 The electronic state is 1-A.
 Alpha  occ. eigenvalues -- -101.56637-101.56637-101.56566-101.56499 -10.26191
 Alpha  occ. eigenvalues --  -10.26190 -10.26009 -10.25806 -10.22675 -10.21952
 Alpha  occ. eigenvalues --  -10.20827 -10.20822 -10.20726 -10.20560 -10.20553
 Alpha  occ. eigenvalues --  -10.20376  -9.48108  -9.48108  -9.48021  -9.47970
 Alpha  occ. eigenvalues --   -7.24574  -7.24574  -7.24486  -7.24436  -7.23593
 Alpha  occ. eigenvalues --   -7.23593  -7.23542  -7.23542  -7.23502  -7.23465
 Alpha  occ. eigenvalues --   -7.23452  -7.23408  -0.93538  -0.91717  -0.88807
 Alpha  occ. eigenvalues --   -0.88626  -0.84528  -0.84165  -0.79789  -0.76637
 Alpha  occ. eigenvalues --   -0.75204  -0.73948  -0.65174  -0.63878  -0.62289
 Alpha  occ. eigenvalues --   -0.60771  -0.55451  -0.52045  -0.51289  -0.51206
 Alpha  occ. eigenvalues --   -0.48730  -0.47538  -0.45585  -0.45466  -0.45401
 Alpha  occ. eigenvalues --   -0.42733  -0.42630  -0.41479  -0.39541  -0.39265
 Alpha  occ. eigenvalues --   -0.38697  -0.38034  -0.37095  -0.33752  -0.33703
 Alpha  occ. eigenvalues --   -0.33323  -0.33191  -0.32555  -0.32419  -0.27743
 Alpha  occ. eigenvalues --   -0.27559  -0.26507  -0.26243
 Alpha virt. eigenvalues --   -0.04916  -0.04605  -0.04335  -0.03820  -0.01938
 Alpha virt. eigenvalues --   -0.00903  -0.00274   0.01217   0.01780   0.01800
 Alpha virt. eigenvalues --    0.02012   0.02225   0.03359   0.04195   0.04767

 Mulliken charges:
               1
     1  C    0.205426
     2  C   -0.238072
     3  C   -0.056181
     4  C   -0.300037
     5  C   -0.056279
     6  C   -0.238071
     7  C    0.106984
     8  C   -0.512620
     9  C   -0.831867
    10  C    0.933696
    11  C   -0.252848
    12  C   -1.213348
    13  H    0.150190
    14  H    0.141810
    15  H    0.150186
    16  H    0.133582
    17  H    0.152959
    18  H    0.168063
    19  Cl   0.357066
    20  Cl   0.398004
    21  Cl   0.403248
    22  Cl   0.398108
 Sum of Mulliken charges =  -0.00000

 Dipole moment (field-independent basis, Debye):
    X=              2.4008    Y=              0.0019    Z=              1.2999  Tot=              2.7301
 Quadrupole moment (field-independent basis, Debye-Ang):
   XX=           -109.4822   YY=           -123.6109   ZZ=           -118.0693
   XY=              0.0036   XZ=              0.7783   YZ=              0.0069

 Normal termination of Gaussian 16 at Sun Apr  3 03:45:32 2022.
