 Gaussian 16, Revision B.01,
 Gaussian 16:  EM64L-G16RevB.01 20-Dec-2017

 --------------------------------
 # opt b3lyp/6-311+g(d,p) scf=xqc
 --------------------------------

 -------------------
 Title Card Required
 -------------------
 Symbolic Z-matrix:
 Charge =  0 Multiplicity = 1

 SCF Done:  E(RB3LYP) =  -3220.57512806     A.U. after   28 cycles
 SCF Done:  E(RB3LYP) =  -3220.47901760     A.U. after   28 cycles
 SCF Done:  E(RB3LYP) =  -3220.73848057     A.U. after   23 cycles
 SCF Done:  E(RB3LYP) =  -3220.81812680     A.U. after   17 cycles
 SCF Done:  E(RB3LYP) =  -3220.85785301     A.U. after   16 cycles
 SCF Done:  E(RB3LYP) =  -3220.93841888     A.U. after   16 cycles
 SCF Done:  E(RB3LYP) =  -3221.03129821     A.U. after   16 cycles
 SCF Done:  E(RB3LYP) =  -3221.04139809     A.U. after   17 cycles
 SCF Done:  E(RB3LYP) =  -3221.06606791     A.U. after   16 cycles
 SCF Done:  E(RB3LYP) =  -3220.89008146     A.U. after   22 cycles
 SCF Done:  E(RB3LYP) =  -3221.13185442     A.U. after   12 cycles
 SCF Done:  E(RB3LYP) =  -3221.13186149     A.U. after   12 cycles
 SCF Done:  E(RB3LYP) =  -3221.13187473     A.U. after   12 cycles
 SCF Done:  E(RB3LYP) =  -3221.13188852     A.U. after   12 cycles
 SCF Done:  E(RB3LYP) =  -3221.13191040     A.U. after   12 cycles
 SCF Done:  E(RB3LYP) =  -3221.13202637     A.U. after   13 cycles
 SCF Done:  E(RB3LYP) =  -3221.13203736     A.U. after   13 cycles
 SCF Done:  E(RB3LYP) =  -3221.13204104     A.U. after   13 cycles
 SCF Done:  E(RB3LYP) =  -3221.13204191     A.U. after   12 cycles
 SCF Done:  E(RB3LYP) =  -3221.13204222     A.U. after   10 cycles
 Optimization completed.
    -- Stationary point found.

                         Standard orientation:
 ---------------------------------------------------------------------
 Center     Atomic      Atomic             Coordinates (Angstroms)
 Number     Number       Type             X           Y           Z
 ---------------------------------------------------------------------
      1          6           0        0.935798    0.271689    0.328508
      2          6           0        1.580470    1.505809    0.226355
      3          6           0        2.960797    1.558566    0.079272
      4          6           0        3.722983    0.399635    0.033526
      5          6           0        3.084897   -0.833245    0.138820
      6          6           0        1.694856   -0.907213    0.288092
      7          6           0       -0.546831    0.245799    0.511531
      8          6           0       -1.084345    0.386773    1.792021
      9          6           0       -2.456171    0.389172    1.998887
     10          6           0       -3.319649    0.251603    0.917471
     11          6           0       -2.814546    0.111871   -0.381560
     12          6           0       -1.423194    0.111690   -0.572440
     13          1           0        0.999603    2.418191    0.253874
     14          1           0        4.796997    0.444079   -0.081310
     15          1           0       -0.414093    0.488839    2.636800
     16          1           0       -2.865729    0.495814    2.994564
     17         17           0       -0.766473   -0.053803   -2.180476
     18         17           0        0.898892   -2.452177    0.427542
     19         17           0       -3.892496   -0.052835   -1.733247
     20         17           0        4.068614   -2.273492    0.084451
     21         17           0       -5.038798    0.259329    1.218512
     22         17           0        3.758075    3.114164   -0.050124
 ---------------------------------------------------------------------

 The electronic state is 1-A.
 Alpha  occ. eigenvalues -- -101.57696-101.57674-101.57600-101.57599-101.57569
 Alpha  occ. eigenvalues -- -101.57542 -10.27684 -10.27594 -10.27510 -10.27312
 Alpha  occ. eigenvalues --  -10.27286 -10.26868 -10.23689 -10.23253 -10.22177
 Alpha  occ. eigenvalues --  -10.21842 -10.21690 -10.21631  -9.49154  -9.49139
 Alpha  occ. eigenvalues --   -9.49076  -9.49057  -9.49041  -9.48995  -7.25643
 Alpha  occ. eigenvalues --   -7.25639  -7.25562  -7.25544  -7.25526  -7.25468
 Alpha  occ. eigenvalues --   -7.24634  -7.24621  -7.24572  -7.24559  -7.24538
 Alpha  occ. eigenvalues --   -7.24537  -7.24522  -7.24487  -7.24476  -7.24472
 Alpha  occ. eigenvalues --   -7.24455  -7.24436  -0.95558  -0.94510  -0.90559
 Alpha  occ. eigenvalues --   -0.90295  -0.88657  -0.87511  -0.85698  -0.84442
 Alpha  occ. eigenvalues --   -0.79785  -0.76319  -0.75628  -0.74484  -0.66932
 Alpha  occ. eigenvalues --   -0.64231  -0.63027  -0.61606  -0.55144  -0.53634
 Alpha  occ. eigenvalues --   -0.53463  -0.53070  -0.49772  -0.48252  -0.46776
 Alpha  occ. eigenvalues --   -0.46693  -0.46572  -0.45149  -0.44870  -0.43344
 Alpha  occ. eigenvalues --   -0.41611  -0.41344  -0.40500  -0.39546  -0.38627
 Alpha  occ. eigenvalues --   -0.36789  -0.36490  -0.35325  -0.34953  -0.34550
 Alpha  occ. eigenvalues --   -0.34175  -0.33776  -0.33417  -0.32706  -0.31917
 Alpha  occ. eigenvalues --   -0.28563  -0.27489  -0.27347  -0.26647
 Alpha virt. eigenvalues --   -0.06208  -0.05954  -0.05429  -0.04723  -0.04033
 Alpha virt. eigenvalues --   -0.02833  -0.00933   0.00064   0.00587   0.01397
 Alpha virt. eigenvalues --    0.01722   0.02129   0.02265   0.02553   0.03277

 Mulliken charges:
               1
     1  C   -0.372655
     2  C   -0.906666
     3  C    0.805299
     4  C   -0.948735
     5  C    0.667251
     6  C   -1.284699
     7  C    0.401242
     8  C   -0.481820
     9  C   -0.886743
    10  C    0.388512
    11  C    0.219680
    12  C   -1.319894
    13  H    0.147857
    14  H    0.173800
    15  H    0.136529
    16  H    0.159078
    17  Cl   0.561323
    18  Cl   0.566635
    19  Cl   0.572291
    20  Cl   0.468657
    21  Cl   0.507496
    22  Cl   0.425560
 Sum of Mulliken charges =  -0.00000

 Dipole moment (field-independent basis, Debye):
    X=              0.6389    Y=              1.0371    Z=              1.8729  Tot=              2.2342
 Quadrupole moment (field-independent basis, Debye-Ang):
   XX=           -147.7531   YY=           -147.7681   ZZ=           -140.6881
   XY=              0.0247   XZ=             -3.0782   YZ=              1.5260

 Normal termination of Gaussian 16 at Sun Apr  3 03:32:27 2022.
