 Gaussian 16, Revision B.01,
 Gaussian 16:  EM64L-G16RevB.01 20-Dec-2017

 --------------------------------
 # opt b3lyp/6-311+g(d,p) scf=xqc
 --------------------------------

 -------------------
 Title Card Required
 -------------------
 Symbolic Z-matrix:
 Charge =  0 Multiplicity = 1

 SCF Done:  E(RB3LYP) =  -2760.94950678     A.U. after   30 cycles
 SCF Done:  E(RB3LYP) =  -2761.06758142     A.U. after   18 cycles
 SCF Done:  E(RB3LYP) =  -2761.17185003     A.U. after   19 cycles
 SCF Done:  E(RB3LYP) =  -2761.13891760     A.U. after   18 cycles
 SCF Done:  E(RB3LYP) =  -2761.28338981     A.U. after   16 cycles
 SCF Done:  E(RB3LYP) =  -2760.95063458     A.U. after   19 cycles
 SCF Done:  E(RB3LYP) =  -2761.31516506     A.U. after   15 cycles
 SCF Done:  E(RB3LYP) =  -2761.32582620     A.U. after   13 cycles
 SCF Done:  E(RB3LYP) =  -2761.34506626     A.U. after   14 cycles
 SCF Done:  E(RB3LYP) =  -2761.36760429     A.U. after   14 cycles
 SCF Done:  E(RB3LYP) =  -2761.51829799     A.U. after   14 cycles
 SCF Done:  E(RB3LYP) =  -2761.51832780     A.U. after   12 cycles
 SCF Done:  E(RB3LYP) =  -2761.51837451     A.U. after   14 cycles
 SCF Done:  E(RB3LYP) =  -2761.51839265     A.U. after   12 cycles
 SCF Done:  E(RB3LYP) =  -2761.51840664     A.U. after   13 cycles
 SCF Done:  E(RB3LYP) =  -2761.51841057     A.U. after   11 cycles
 SCF Done:  E(RB3LYP) =  -2761.51841201     A.U. after   11 cycles
 SCF Done:  E(RB3LYP) =  -2761.51841251     A.U. after   12 cycles
 SCF Done:  E(RB3LYP) =  -2761.51841285     A.U. after   10 cycles
 SCF Done:  E(RB3LYP) =  -2761.51841300     A.U. after   10 cycles
 Optimization completed.
    -- Stationary point found.

                         Standard orientation:
 ---------------------------------------------------------------------
 Center     Atomic      Atomic             Coordinates (Angstroms)
 Number     Number       Type             X           Y           Z
 ---------------------------------------------------------------------
      1          6           0        0.683174    0.118400   -0.270486
      2          6           0        1.343468   -0.060936   -1.489934
      3          6           0        2.704542   -0.335648   -1.550051
      4          6           0        3.421488   -0.432810   -0.362057
      5          6           0        2.803441   -0.261071    0.870474
      6          6           0        1.439152    0.013079    0.900899
      7          6           0       -0.777936    0.417893   -0.249920
      8          6           0       -1.251429    1.734218   -0.298539
      9          6           0       -2.611283    2.025765   -0.296845
     10          6           0       -3.532056    0.989829   -0.246924
     11          6           0       -3.098550   -0.331772   -0.199241
     12          6           0       -1.729140   -0.616864   -0.201137
     13          1           0        0.774981    0.016922   -2.409220
     14          1           0        3.200936   -0.471935   -2.501640
     15          1           0        3.366968   -0.337781    1.789843
     16          1           0       -2.943723    3.054570   -0.333435
     17          1           0       -4.593569    1.200431   -0.244373
     18         17           0       -1.178874   -2.270826   -0.138221
     19         17           0        0.675551    0.226302    2.465226
     20         17           0       -4.295210   -1.601583   -0.139673
     21         17           0        5.141050   -0.778545   -0.412522
     22         17           0       -0.117507    3.070375   -0.359434
 ---------------------------------------------------------------------

 The electronic state is 1-A.
 Alpha  occ. eigenvalues -- -101.57366-101.57334-101.57167-101.56846-101.56829
 Alpha  occ. eigenvalues --  -10.27370 -10.26808 -10.26708 -10.26371 -10.26127
 Alpha  occ. eigenvalues --  -10.23544 -10.22372 -10.21796 -10.21479 -10.21152
 Alpha  occ. eigenvalues --  -10.21095 -10.20702  -9.48840  -9.48792  -9.48636
 Alpha  occ. eigenvalues --   -9.48318  -9.48283  -7.25326  -7.25278  -7.25107
 Alpha  occ. eigenvalues --   -7.24784  -7.24750  -7.24325  -7.24271  -7.24248
 Alpha  occ. eigenvalues --   -7.24214  -7.24118  -7.24068  -7.23798  -7.23765
 Alpha  occ. eigenvalues --   -7.23755  -7.23727  -0.94854  -0.92582  -0.90346
 Alpha  occ. eigenvalues --   -0.89038  -0.87856  -0.84755  -0.84146  -0.80017
 Alpha  occ. eigenvalues --   -0.77004  -0.74997  -0.73955  -0.66140  -0.64351
 Alpha  occ. eigenvalues --   -0.62654  -0.60954  -0.55314  -0.53147  -0.52516
 Alpha  occ. eigenvalues --   -0.51607  -0.49196  -0.48010  -0.46320  -0.46057
 Alpha  occ. eigenvalues --   -0.45845  -0.44382  -0.43154  -0.42433  -0.41056
 Alpha  occ. eigenvalues --   -0.39893  -0.39580  -0.39137  -0.37681  -0.36475
 Alpha  occ. eigenvalues --   -0.34740  -0.34103  -0.33524  -0.33303  -0.33219
 Alpha  occ. eigenvalues --   -0.32851  -0.32361  -0.28296  -0.27878  -0.26578
 Alpha  occ. eigenvalues --   -0.26331
 Alpha virt. eigenvalues --   -0.05545  -0.05395  -0.04749  -0.04296  -0.03050
 Alpha virt. eigenvalues --   -0.01335  -0.00459   0.00165   0.01050   0.01584
 Alpha virt. eigenvalues --    0.01787   0.02452   0.02687   0.03199   0.04431

 Mulliken charges:
               1
     1  C    0.042332
     2  C   -0.519026
     3  C   -0.785574
     4  C    0.923197
     5  C   -0.293101
     6  C   -1.221502
     7  C    0.126899
     8  C   -0.123174
     9  C   -0.327757
    10  C   -0.579238
    11  C    1.098650
    12  C   -1.313251
    13  H    0.134279
    14  H    0.153757
    15  H    0.168695
    16  H    0.156264
    17  H    0.158728
    18  Cl   0.547965
    19  Cl   0.358757
    20  Cl   0.473809
    21  Cl   0.411655
    22  Cl   0.407635
 Sum of Mulliken charges =  -0.00000

 Dipole moment (field-independent basis, Debye):
    X=             -1.1284    Y=              1.2211    Z=             -1.2900  Tot=              2.1044
 Quadrupole moment (field-independent basis, Debye-Ang):
   XX=           -129.9381   YY=           -133.9344   ZZ=           -129.4837
   XY=             -6.8128   XZ=             -0.0358   YZ=             -0.3163

 Normal termination of Gaussian 16 at Fri Apr 22 16:08:27 2022.
