 Gaussian 16, Revision B.01,
 Gaussian 16:  EM64L-G16RevB.01 20-Dec-2017

 --------------------------------
 # opt b3lyp/6-311+g(d,p) scf=xqc
 --------------------------------

 -------------------
 Title Card Required
 -------------------
 Symbolic Z-matrix:
 Charge =  0 Multiplicity = 1

 SCF Done:  E(RB3LYP) =  -2759.90120724     A.U. after   19 cycles
 SCF Done:  E(RB3LYP) =  -2760.41102695     A.U. after   16 cycles
 SCF Done:  E(RB3LYP) =  -2760.94592375     A.U. after   18 cycles
 SCF Done:  E(RB3LYP) =  -2761.21370825     A.U. after   20 cycles
 SCF Done:  E(RB3LYP) =  -2761.22520682     A.U. after   19 cycles
 SCF Done:  E(RB3LYP) =  -2761.25770428     A.U. after   18 cycles
 SCF Done:  E(RB3LYP) =  -2761.26808912     A.U. after   18 cycles
 SCF Done:  E(RB3LYP) =  -2761.27559589     A.U. after   18 cycles
 SCF Done:  E(RB3LYP) =  -2761.28490494     A.U. after   18 cycles
 SCF Done:  E(RB3LYP) =  -2761.29792800     A.U. after   18 cycles
 SCF Done:  E(RB3LYP) =  -2761.51975557     A.U. after   14 cycles
 SCF Done:  E(RB3LYP) =  -2761.51996155     A.U. after   15 cycles
 SCF Done:  E(RB3LYP) =  -2761.52004405     A.U. after   13 cycles
 SCF Done:  E(RB3LYP) =  -2761.52017674     A.U. after   13 cycles
 SCF Done:  E(RB3LYP) =  -2761.52022658     A.U. after   13 cycles
 SCF Done:  E(RB3LYP) =  -2761.52025050     A.U. after   13 cycles
 SCF Done:  E(RB3LYP) =  -2761.52025545     A.U. after   12 cycles
 SCF Done:  E(RB3LYP) =  -2761.52025606     A.U. after   10 cycles
 SCF Done:  E(RB3LYP) =  -2761.52025635     A.U. after   11 cycles
 SCF Done:  E(RB3LYP) =  -2761.52025644     A.U. after   11 cycles
 Optimization completed.
    -- Stationary point found.

                         Standard orientation:
 ---------------------------------------------------------------------
 Center     Atomic      Atomic             Coordinates (Angstroms)
 Number     Number       Type             X           Y           Z
 ---------------------------------------------------------------------
      1          6           0        0.954272    0.242906   -0.261462
      2          6           0        1.618897    0.408094   -1.481449
      3          6           0        3.006953    0.409328   -1.565196
      4          6           0        3.748443    0.243281   -0.400415
      5          6           0        3.128088    0.080826    0.832491
      6          6           0        1.737027    0.083013    0.887354
      7          6           0       -0.537805    0.273149   -0.216959
      8          6           0       -1.186598    1.508747   -0.169669
      9          6           0       -2.574333    1.565655   -0.145123
     10          6           0       -3.341301    0.409380   -0.168854
     11          6           0       -2.699734   -0.825147   -0.219706
     12          6           0       -1.302190   -0.903152   -0.245633
     13          1           0        1.031297    0.531270   -2.383720
     14          1           0        3.504491    0.535345   -2.517641
     15          1           0        3.710726   -0.043421    1.734656
     16          1           0       -0.602915    2.419333   -0.143532
     17          1           0       -4.421110    0.456952   -0.149136
     18         17           0       -0.502355   -2.450780   -0.319938
     19         17           0        0.975572   -0.115145    2.454898
     20         17           0       -3.689006   -2.262600   -0.255038
     21         17           0        5.500994    0.241222   -0.479817
     22         17           0       -3.375370    3.124011   -0.083217
 ---------------------------------------------------------------------

 The electronic state is 1-A.
 Alpha  occ. eigenvalues -- -101.57518-101.57371-101.57336-101.57098-101.57094
 Alpha  occ. eigenvalues --  -10.27302 -10.27053 -10.26685 -10.26661 -10.26418
 Alpha  occ. eigenvalues --  -10.23404 -10.22622 -10.21975 -10.21605 -10.21474
 Alpha  occ. eigenvalues --  -10.21421 -10.21036  -9.48977  -9.48824  -9.48809
 Alpha  occ. eigenvalues --   -9.48569  -9.48548  -7.25465  -7.25296  -7.25294
 Alpha  occ. eigenvalues --   -7.25037  -7.25016  -7.24457  -7.24396  -7.24301
 Alpha  occ. eigenvalues --   -7.24290  -7.24266  -7.24222  -7.24050  -7.24030
 Alpha  occ. eigenvalues --   -7.24004  -7.23991  -0.94802  -0.92918  -0.90336
 Alpha  occ. eigenvalues --   -0.89450  -0.87966  -0.85442  -0.84099  -0.79770
 Alpha  occ. eigenvalues --   -0.77287  -0.75316  -0.74218  -0.66426  -0.64573
 Alpha  occ. eigenvalues --   -0.62736  -0.61032  -0.55180  -0.53332  -0.53032
 Alpha  occ. eigenvalues --   -0.51813  -0.49425  -0.48056  -0.46394  -0.46296
 Alpha  occ. eigenvalues --   -0.46121  -0.44556  -0.43384  -0.42717  -0.41215
 Alpha  occ. eigenvalues --   -0.40108  -0.39701  -0.39316  -0.38005  -0.36540
 Alpha  occ. eigenvalues --   -0.34829  -0.34221  -0.33821  -0.33594  -0.33260
 Alpha  occ. eigenvalues --   -0.33011  -0.32506  -0.28395  -0.28227  -0.26906
 Alpha  occ. eigenvalues --   -0.26436
 Alpha virt. eigenvalues --   -0.05907  -0.05679  -0.04789  -0.04372  -0.02994
 Alpha virt. eigenvalues --   -0.01594  -0.00680   0.00202   0.00743   0.01453
 Alpha virt. eigenvalues --    0.01677   0.02185   0.02528   0.03300   0.03872

 Mulliken charges:
               1
     1  C    0.689756
     2  C   -0.786136
     3  C   -0.596022
     4  C    0.830004
     5  C   -0.312851
     6  C   -0.989131
     7  C   -0.247398
     8  C   -0.900905
     9  C    0.788397
    10  C   -0.835733
    11  C    0.542046
    12  C   -1.198586
    13  H    0.136890
    14  H    0.154810
    15  H    0.171228
    16  H    0.148149
    17  H    0.172982
    18  Cl   0.574474
    19  Cl   0.367040
    20  Cl   0.462890
    21  Cl   0.409868
    22  Cl   0.418227
 Sum of Mulliken charges =  -0.00000

 Dipole moment (field-independent basis, Debye):
    X=              0.1473    Y=              0.9885    Z=             -1.1974  Tot=              1.5597
 Quadrupole moment (field-independent basis, Debye-Ang):
   XX=           -134.2205   YY=           -136.3921   ZZ=           -129.6207
   XY=              0.2397   XZ=             -0.8697   YZ=             -1.3986

 1\1\GINC-DAMODAR\FOpt\RB3LYP\6-311+G(d,p)\C12H5Cl5\PKC\16-Mar-2022\0\\
 # opt b3lyp/6-311+g(d,p) scf=xqc\\Title Card Required\\0,1\C,1.1609022
 236,0.3105916342,0.0660596455\C,2.456445518,0.3076914249,0.5942090554\
 C,3.2225566899,1.4662280041,0.6618815112\C,2.6807219045,2.6562145576,0
 .1881288385\C,1.3996324483,2.7021628549,-0.3485172671\C,0.6544435999,1
 .5275448893,-0.4035917682\C,0.3850761434,-0.962858813,-0.0088165498\C,
 0.6027982113,-1.8232916258,-1.0868343413\C,-0.0930787572,-3.0225443561
 ,-1.1716754957\C,-1.0096552304,-3.3917779638,-0.1973388631\C,-1.227973

 Normal termination of Gaussian 16 at Wed Mar 16 06:44:49 2022.
