 Gaussian 16, Revision B.01,
 Gaussian 16:  EM64L-G16RevB.01 20-Dec-2017

 --------------------------------
 # opt b3lyp/6-311+g(d,p) scf=xqc
 --------------------------------

 -------------------
 Title Card Required
 -------------------
 Symbolic Z-matrix:
 Charge =  0 Multiplicity = 1

 SCF Done:  E(RB3LYP) =  -2759.89947287     A.U. after   20 cycles
 SCF Done:  E(RB3LYP) =  -2760.40912702     A.U. after   16 cycles
 SCF Done:  E(RB3LYP) =  -2760.94358240     A.U. after   17 cycles
 SCF Done:  E(RB3LYP) =  -2761.21307088     A.U. after   20 cycles
 SCF Done:  E(RB3LYP) =  -2761.22739467     A.U. after   23 cycles
 SCF Done:  E(RB3LYP) =  -2761.25683912     A.U. after   18 cycles
 SCF Done:  E(RB3LYP) =  -2761.26758654     A.U. after   18 cycles
 SCF Done:  E(RB3LYP) =  -2761.27620155     A.U. after   18 cycles
 SCF Done:  E(RB3LYP) =  -2761.28678786     A.U. after   19 cycles
 SCF Done:  E(RB3LYP) =  -2761.30269202     A.U. after   18 cycles
 SCF Done:  E(RB3LYP) =  -2761.51567666     A.U. after   13 cycles
 SCF Done:  E(RB3LYP) =  -2761.51595605     A.U. after   15 cycles
 SCF Done:  E(RB3LYP) =  -2761.51604015     A.U. after   14 cycles
 SCF Done:  E(RB3LYP) =  -2761.51608549     A.U. after   13 cycles
 SCF Done:  E(RB3LYP) =  -2761.51611938     A.U. after   13 cycles
 SCF Done:  E(RB3LYP) =  -2761.51614147     A.U. after   13 cycles
 SCF Done:  E(RB3LYP) =  -2761.51614419     A.U. after   12 cycles
 SCF Done:  E(RB3LYP) =  -2761.51614448     A.U. after   10 cycles
 SCF Done:  E(RB3LYP) =  -2761.51614456     A.U. after   11 cycles
 SCF Done:  E(RB3LYP) =  -2761.51614456     A.U. after   10 cycles
 Optimization completed.
    -- Stationary point found.

                         Standard orientation:
 ---------------------------------------------------------------------
 Center     Atomic      Atomic             Coordinates (Angstroms)
 Number     Number       Type             X           Y           Z
 ---------------------------------------------------------------------
      1          6           0        1.158433    0.383222   -0.289718
      2          6           0        1.827936    0.384356   -1.518438
      3          6           0        3.210525    0.260111   -1.600928
      4          6           0        3.942777    0.133474   -0.425469
      5          6           0        3.318763    0.131967    0.816171
      6          6           0        1.933178    0.257340    0.868861
      7          6           0       -0.324464    0.546371   -0.249638
      8          6           0       -0.878682    1.827360   -0.290867
      9          6           0       -2.252639    2.019331   -0.273712
     10          6           0       -3.103996    0.921422   -0.215878
     11          6           0       -2.584191   -0.378529   -0.176667
     12          6           0       -1.190773   -0.553130   -0.195158
     13          1           0        1.247108    0.477728   -2.428668
     14          1           0        3.710804    0.259745   -2.560282
     15          1           0        3.894502    0.036715    1.726253
     16          1           0       -0.217910    2.684818   -0.329418
     17          1           0       -2.673210    3.015750   -0.302593
     18         17           0       -0.517469   -2.162736   -0.155710
     19         17           0        1.167911    0.259486    2.447611
     20         17           0       -3.647652   -1.750768   -0.111317
     21         17           0       -4.826870    1.203546   -0.195400
     22         17           0        5.688639   -0.024500   -0.502634
 ---------------------------------------------------------------------

 The electronic state is 1-A.
 Alpha  occ. eigenvalues -- -101.57428-101.57367-101.57269-101.57030-101.57001
 Alpha  occ. eigenvalues --  -10.27384 -10.27239 -10.27016 -10.26562 -10.26325
 Alpha  occ. eigenvalues --  -10.22808 -10.22460 -10.21381 -10.21364 -10.21293
 Alpha  occ. eigenvalues --  -10.21288 -10.20941  -9.48893  -9.48826  -9.48745
 Alpha  occ. eigenvalues --   -9.48484  -9.48472  -7.25393  -7.25312  -7.25230
 Alpha  occ. eigenvalues --   -7.24951  -7.24939  -7.24376  -7.24307  -7.24292
 Alpha  occ. eigenvalues --   -7.24246  -7.24230  -7.24155  -7.23965  -7.23955
 Alpha  occ. eigenvalues --   -7.23927  -7.23907  -0.95030  -0.92951  -0.90011
 Alpha  occ. eigenvalues --   -0.89130  -0.87549  -0.85455  -0.84503  -0.79238
 Alpha  occ. eigenvalues --   -0.77039  -0.75994  -0.73663  -0.65220  -0.64152
 Alpha  occ. eigenvalues --   -0.63862  -0.60983  -0.55602  -0.53091  -0.52117
 Alpha  occ. eigenvalues --   -0.51584  -0.49225  -0.48173  -0.46430  -0.46112
 Alpha  occ. eigenvalues --   -0.45997  -0.44784  -0.43330  -0.42633  -0.40922
 Alpha  occ. eigenvalues --   -0.40104  -0.39460  -0.38441  -0.37815  -0.36160
 Alpha  occ. eigenvalues --   -0.34994  -0.34450  -0.33988  -0.33674  -0.33623
 Alpha  occ. eigenvalues --   -0.33003  -0.31671  -0.28140  -0.27209  -0.27135
 Alpha  occ. eigenvalues --   -0.26709
 Alpha virt. eigenvalues --   -0.05754  -0.05379  -0.04706  -0.04312  -0.03648
 Alpha virt. eigenvalues --   -0.01635  -0.00721   0.00657   0.01483   0.01602
 Alpha virt. eigenvalues --    0.01672   0.02196   0.02607   0.03355   0.04041

 Mulliken charges:
               1
     1  C    0.407392
     2  C   -0.547310
     3  C   -0.704900
     4  C    0.900958
     5  C   -0.410484
     6  C   -0.953661
     7  C    0.385713
     8  C   -0.455681
     9  C   -1.019587
    10  C    0.240125
    11  C    0.369422
    12  C   -1.328951
    13  H    0.134482
    14  H    0.154477
    15  H    0.170607
    16  H    0.135579
    17  H    0.158383
    18  Cl   0.520491
    19  Cl   0.355505
    20  Cl   0.587092
    21  Cl   0.494298
    22  Cl   0.406050
 Sum of Mulliken charges =  -0.00000

 Dipole moment (field-independent basis, Debye):
    X=              0.7855    Y=              2.0100    Z=             -1.3359  Tot=              2.5381
 Quadrupole moment (field-independent basis, Debye-Ang):
   XX=           -140.6837   YY=           -129.2159   ZZ=           -129.5452
   XY=             -2.1898   XZ=             -1.1312   YZ=             -1.5645

 Normal termination of Gaussian 16 at Wed Mar 16 06:03:19 2022.
