 Gaussian 16, Revision B.01,
 Gaussian 16:  EM64L-G16RevB.01 20-Dec-2017

 ---------------------------------------------
 # opt freq=noraman b3lyp/6-311+g(d,p) scf=xqc
 ---------------------------------------------

 -------------------
 Title Card Required
 -------------------
 Symbolic Z-matrix:
 Charge =  0 Multiplicity = 1

 SCF Done:  E(RB3LYP) =  -2300.86406635     A.U. after   22 cycles
 SCF Done:  E(RB3LYP) =  -2301.00519345     A.U. after   23 cycles
 SCF Done:  E(RB3LYP) =  -2301.24318479     A.U. after   18 cycles
 SCF Done:  E(RB3LYP) =  -2301.46547646     A.U. after   16 cycles
 SCF Done:  E(RB3LYP) =  -2301.56826387     A.U. after   17 cycles
 SCF Done:  E(RB3LYP) =  -2301.63076929     A.U. after   14 cycles
 SCF Done:  E(RB3LYP) =  -2301.62839828     A.U. after   15 cycles
 SCF Done:  E(RB3LYP) =  -2301.70456896     A.U. after   14 cycles
 SCF Done:  E(RB3LYP) =  -2301.71924920     A.U. after   13 cycles
 SCF Done:  E(RB3LYP) =  -2301.72564352     A.U. after   13 cycles
 SCF Done:  E(RB3LYP) =  -2301.90049678     A.U. after   10 cycles
 SCF Done:  E(RB3LYP) =  -2301.90049733     A.U. after   10 cycles
 SCF Done:  E(RB3LYP) =  -2301.90049780     A.U. after   10 cycles
 SCF Done:  E(RB3LYP) =  -2301.90049759     A.U. after   10 cycles
 SCF Done:  E(RB3LYP) =  -2301.90049460     A.U. after   10 cycles
 SCF Done:  E(RB3LYP) =  -2301.90047977     A.U. after   10 cycles
 SCF Done:  E(RB3LYP) =  -2301.90048156     A.U. after   10 cycles
 SCF Done:  E(RB3LYP) =  -2301.90050381     A.U. after   10 cycles
 SCF Done:  E(RB3LYP) =  -2301.90049675     A.U. after   10 cycles
 Optimization completed.
    -- Stationary point found.
 Normal termination of Gaussian 16 at Mon Apr 25 19:29:50 2022.

 ----------------------------------------------------------------------
 #N Geom=AllCheck Guess=TCheck SCRF=Check GenChk RB3LYP/6-311+G(d,p) Fr
 eq
 ----------------------------------------------------------------------

 Structure from the checkpoint file:  "./Gau-280635.chk"
 -------------------
 Title Card Required
 -------------------
 Charge =  0 Multiplicity = 1

                         Standard orientation:
 ---------------------------------------------------------------------
 Center     Atomic      Atomic             Coordinates (Angstroms)
 Number     Number       Type             X           Y           Z
 ---------------------------------------------------------------------
      1          6           0        0.744952   -0.000219    0.000115
      2          6           0        1.480055    0.884317    0.801132
      3          6           0        2.870424    0.894676    0.810703
      4          6           0        3.561005   -0.000085    0.000492
      5          6           0        2.870762   -0.894798   -0.810036
      6          6           0        1.480391   -0.884488   -0.800827
      7          6           0       -0.744989   -0.000260   -0.000066
      8          6           0       -1.480427   -0.801317    0.884150
      9          6           0       -2.870767   -0.810617    0.894393
     10          6           0       -3.561037   -0.000048   -0.000310
     11          6           0       -2.870495    0.810478   -0.894778
     12          6           0       -1.480108    0.801012   -0.884302
     13          1           0        3.397125    1.595207    1.444965
     14          1           0        4.644586   -0.000016    0.000693
     15          1           0        3.397639   -1.595214   -1.444274
     16          1           0       -3.397690   -1.444902    1.594732
     17          1           0       -4.644618    0.000008   -0.000400
     18          1           0       -3.397155    1.444921   -1.595173
     19         17           0       -0.634554    1.833684   -2.023798
     20         17           0        0.635101   -2.024008   -1.833659
     21         17           0       -0.635019   -1.833638    2.024046
     22         17           0        0.634561    2.024438    1.833144
 ---------------------------------------------------------------------

 SCF Done:  E(RB3LYP) =  -2301.90049675     A.U. after    1 cycles

 The electronic state is 1-A.
 Alpha  occ. eigenvalues -- -101.56342-101.56342-101.56342-101.56342 -10.25868
 Alpha  occ. eigenvalues --  -10.25868 -10.25868 -10.25868 -10.22474 -10.22445
 Alpha  occ. eigenvalues --  -10.20507 -10.20506 -10.20215 -10.20215 -10.20209
 Alpha  occ. eigenvalues --  -10.20209  -9.47816  -9.47816  -9.47815  -9.47814
 Alpha  occ. eigenvalues --   -7.24281  -7.24281  -7.24281  -7.24281  -7.23298
 Alpha  occ. eigenvalues --   -7.23297  -7.23297  -7.23297  -7.23252  -7.23251
 Alpha  occ. eigenvalues --   -7.23251  -7.23251  -0.93659  -0.91206  -0.88525
 Alpha  occ. eigenvalues --   -0.88525  -0.83949  -0.83927  -0.80364  -0.74890
 Alpha  occ. eigenvalues --   -0.74890  -0.74793  -0.65722  -0.62025  -0.62024
 Alpha  occ. eigenvalues --   -0.61419  -0.55174  -0.52160  -0.51054  -0.51054
 Alpha  occ. eigenvalues --   -0.48638  -0.47131  -0.45470  -0.45110  -0.45110
 Alpha  occ. eigenvalues --   -0.42426  -0.42426  -0.41042  -0.39064  -0.39064
 Alpha  occ. eigenvalues --   -0.38622  -0.38245  -0.36451  -0.33420  -0.33419
 Alpha  occ. eigenvalues --   -0.33118  -0.32959  -0.32430  -0.32430  -0.27335
 Alpha  occ. eigenvalues --   -0.27334  -0.26247  -0.26073
 Alpha virt. eigenvalues --   -0.04467  -0.04356  -0.04354  -0.03632  -0.01962
 Alpha virt. eigenvalues --   -0.00562  -0.00068   0.01158   0.01982   0.01982
 Alpha virt. eigenvalues --    0.02495   0.02496   0.03474   0.04636   0.05248

 Mulliken charges:
               1
     1  C   -0.097683
     2  C   -0.419315
     3  C   -0.006375
     4  C   -0.292718
     5  C   -0.006478
     6  C   -0.419480
     7  C   -0.097662
     8  C   -0.419312
     9  C   -0.006614
    10  C   -0.292659
    11  C   -0.006232
    12  C   -0.419309
    13  H    0.148795
    14  H    0.141311
    15  H    0.148792
    16  H    0.148789
    17  H    0.141312
    18  H    0.148794
    19  Cl   0.401577
    20  Cl   0.401462
    21  Cl   0.401447
    22  Cl   0.401559
 Sum of Mulliken charges =  -0.00000

 Dipole moment (field-independent basis, Debye):
    X=             -0.0001    Y=              0.0001    Z=              0.0002  Tot=              0.0003
 Quadrupole moment (field-independent basis, Debye-Ang):
   XX=            -96.0753   YY=           -123.5721   ZZ=           -123.5725
   XY=             -0.0002   XZ=              0.0028   YZ=              0.0001

  Exact polarizability: 220.937  -0.003 167.472   0.004  -0.000 167.451
 Approx polarizability: 336.871  -0.007 274.769   0.005  -0.000 274.729

                      1                      2                      3
                      A                      A                      A
 Frequencies --     31.0044                60.3145                60.3155
 Red. masses --     19.9890                 7.3062                 7.3063
 Frc consts  --      0.0113                 0.0157                 0.0157
 IR Inten    --      0.0000                 1.3631                 1.3630

                      4                      5                      6
                      A                      A                      A
 Frequencies --     94.8362                94.8440               145.1093
 Red. masses --     25.0110                25.0106                27.2917
 Frc consts  --      0.1325                 0.1326                 0.3386
 IR Inten    --      0.1591                 0.1593                 0.0000

                      7                      8                      9
                      A                      A                      A
 Frequencies --    199.8667               202.1099               217.8942
 Red. masses --      4.6495                 4.5668                19.0236
 Frc consts  --      0.1094                 0.1099                 0.5322
 IR Inten    --      0.0000                 0.0000                 0.8104

                     10                     11                     12
                      A                      A                      A
 Frequencies --    288.9293               295.3836               295.3977
 Red. masses --     18.0238                 7.2147                 7.2144
 Frc consts  --      0.8865                 0.3709                 0.3709
 IR Inten    --      0.0000                 1.5102                 1.5104

                     13                     14                     15
                      A                      A                      A
 Frequencies --    396.2202               401.6185               401.6332
 Red. masses --     16.5121                 6.3550                 6.3553
 Frc consts  --      1.5273                 0.6039                 0.6040
 IR Inten    --      8.5726                 1.6009                 1.6005

                     16                     17                     18
                      A                      A                      A
 Frequencies --    459.4148               459.4198               481.5835
 Red. masses --      6.7205                 6.7194                 9.8951
 Frc consts  --      0.8357                 0.8356                 1.3521
 IR Inten    --      5.3104                 5.3077                 0.0000

                     19                     20                     21
                      A                      A                      A
 Frequencies --    538.1418               547.4369               578.1828
 Red. masses --      5.3055                 5.3999                 3.9971
 Frc consts  --      0.9053                 0.9535                 0.7873
 IR Inten    --      0.0000                 0.0000                 1.7799

                     22                     23                     24
                      A                      A                      A
 Frequencies --    578.1865               676.3628               746.3928
 Red. masses --      3.9968                 8.0380                 2.9282
 Frc consts  --      0.7872                 2.1665                 0.9611
 IR Inten    --      1.7803                 0.0100                35.3193

                     25                     26                     27
                      A                      A                      A
 Frequencies --    746.4065               777.4717               784.8289
 Red. masses --      2.9278                 6.0087                 2.2923
 Frc consts  --      0.9610                 2.1399                 0.8319
 IR Inten    --     35.3147                 0.0000                 1.8652

                     28                     29                     30
                      A                      A                      A
 Frequencies --    784.8307               796.1898               796.1949
 Red. masses --      2.2937                 3.7244                 3.7260
 Frc consts  --      0.8324                 1.3911                 1.3917
 IR Inten    --      1.8801                88.6997                88.7157

                     31                     32                     33
                      A                      A                      A
 Frequencies --    906.9201               907.1715               988.7283
 Red. masses --      1.3626                 1.3634                 1.3140
 Frc consts  --      0.6603                 0.6611                 0.7568
 IR Inten    --      0.0000                 0.0000                 0.1493

                     34                     35                     36
                      A                      A                      A
 Frequencies --    988.7315              1017.3687              1092.2838
 Red. masses --      1.3140                 7.6970                 2.0544
 Frc consts  --      0.7568                 4.6938                 1.4441
 IR Inten    --      0.1493                 0.0000                 0.0000

                     37                     38                     39
                      A                      A                      A
 Frequencies --   1097.1481              1108.6516              1132.9233
 Red. masses --      3.6532                10.2360                 2.0369
 Frc consts  --      2.5909                 7.4126                 1.5403
 IR Inten    --     27.1085                 0.0000                 9.3015

                     40                     41                     42
                      A                      A                      A
 Frequencies --   1176.9194              1176.9222              1217.4272
 Red. masses --      1.3463                 1.3461                 1.6217
 Frc consts  --      1.0987                 1.0986                 1.4162
 IR Inten    --      6.6537                 6.6476                22.1384

                     43                     44                     45
                      A                      A                      A
 Frequencies --   1217.4362              1276.3056              1293.7600
 Red. masses --      1.6218                 2.7023                 9.4210
 Frc consts  --      1.4163                 2.5936                 9.2909
 IR Inten    --     22.1322                 0.0000                 2.6840

                     46                     47                     48
                      A                      A                      A
 Frequencies --   1293.7734              1444.1441              1458.7576
 Red. masses --      9.4206                 2.8801                 2.1721
 Frc consts  --      9.2907                 3.5389                 2.7233
 IR Inten    --      2.6815                18.7034                69.7189

                     49                     50                     51
                      A                      A                      A
 Frequencies --   1458.7658              1495.6481              1593.5341
 Red. masses --      2.1722                 3.9395                 6.1321
 Frc consts  --      2.7235                 5.1922                 9.1746
 IR Inten    --     69.7058                 0.0000                37.6015

                     52                     53                     54
                      A                      A                      A
 Frequencies --   1593.5402              1618.6196              1625.8295
 Red. masses --      6.1324                 6.7712                 7.4140
 Frc consts  --      9.1750                10.4522                11.5465
 IR Inten    --     37.6020                25.6658                 0.0000

                     55                     56                     57
                      A                      A                      A
 Frequencies --   3181.8489              3181.8702              3205.5358
 Red. masses --      1.0882                 1.0883                 1.0921
 Frc consts  --      6.4914                 6.4917                 6.6119
 IR Inten    --      0.0002                 9.3365                 0.3417

                     58                     59                     60
                      A                      A                      A
 Frequencies --   3205.5459              3209.9230              3209.9472
 Red. masses --      1.0921                 1.0964                 1.0963
 Frc consts  --      6.6119                 6.6557                 6.6555
 IR Inten    --      0.3413                 3.9593                 0.1145

 - Thermochemistry -
 -------------------
 Temperature   298.150 Kelvin.  Pressure   1.00000 Atm.
 Atom     1 has atomic number  6 and mass  12.00000

 Molecular mass:   289.92236 amu.
 Principal axes and moments of inertia in atomic units:
                           1         2         3
     Eigenvalues --  4286.165515587.956935588.61063
           X            1.00000  -0.00000   0.00003
           Y            0.00000   1.00000  -0.00129
           Z           -0.00003   0.00129   1.00000
 This molecule is an asymmetric top.
 Rotational symmetry number  1.
 Warning -- assumption of classical behavior for rotation
           may cause significant error
 Rotational temperatures (Kelvin)      0.02021     0.01550     0.01550
 Rotational constants (GHZ):           0.42106     0.32297     0.32293
 Zero-point vibrational energy     372711.5 (Joules/Mol)
                                   89.08019 (Kcal/Mol)
 Warning -- explicit consideration of  22 degrees of freedom as
           vibrations may cause significant error
 Vibrational temperatures:     44.61    86.78    86.78   136.45   136.46
          (Kelvin)            208.78   287.56   290.79   313.50   415.70
                              424.99   425.01   570.07   577.84   577.86
                              661.00   661.00   692.89   774.27   787.64
                              831.88   831.88   973.14  1073.89  1073.91
                             1118.61  1129.19  1129.20  1145.54  1145.55
                             1304.86  1305.22  1422.56  1422.56  1463.77
                             1571.55  1578.55  1595.10  1630.02  1693.32
                             1693.33  1751.61  1751.62  1836.32  1861.43
                             1861.45  2077.80  2098.83  2098.84  2151.90
                             2292.74  2292.75  2328.83  2339.21  4577.97
                             4578.00  4612.05  4612.07  4618.36  4618.40

 Zero-point correction=                           0.141958 (Hartree/Particle)
 Thermal correction to Energy=                    0.155959
 Thermal correction to Enthalpy=                  0.156903
 Thermal correction to Gibbs Free Energy=         0.099153
 Sum of electronic and zero-point Energies=          -2301.758538
 Sum of electronic and thermal Energies=             -2301.744538
 Sum of electronic and thermal Enthalpies=           -2301.743594
 Sum of electronic and thermal Free Energies=        -2301.801344

                     E (Thermal)             CV                S
                      KCal/Mol        Cal/Mol-Kelvin    Cal/Mol-Kelvin
 Total                   97.866             51.871            121.546
 Electronic               0.000              0.000              0.000
 Translational            0.889              2.981             42.891
 Rotational               0.889              2.981             33.259
 Vibrational             96.088             45.910             45.396
 Vibration     1          0.594              1.984              5.764
 Vibration     2          0.597              1.973              4.447
 Vibration     3          0.597              1.973              4.447
 Vibration     4          0.603              1.953              3.558
 Vibration     5          0.603              1.953              3.558
 Vibration     6          0.616              1.908              2.735
 Vibration     7          0.638              1.840              2.134
 Vibration     8          0.639              1.837              2.114
 Vibration     9          0.646              1.814              1.977
 Vibration    10          0.685              1.694              1.480
 Vibration    11          0.690              1.682              1.443
 Vibration    12          0.690              1.682              1.443
 Vibration    13          0.763              1.478              0.977
 Vibration    14          0.767              1.467              0.957
 Vibration    15          0.767              1.467              0.957
 Vibration    16          0.817              1.340              0.768
 Vibration    17          0.817              1.340              0.768
 Vibration    18          0.838              1.291              0.706
 Vibration    19          0.893              1.166              0.569
 Vibration    20          0.903              1.145              0.550
 Vibration    21          0.935              1.078              0.489
 Vibration    22          0.935              1.078              0.489

 Optimization completed.
    -- Stationary point found.
 Normal termination of Gaussian 16 at Mon Apr 25 19:58:02 2022.
