 Gaussian 16, Revision B.01,
 Gaussian 16:  EM64L-G16RevB.01 20-Dec-2017

 --------------------------------
 # opt b3lyp/6-311+g(d,p) scf=xqc
 --------------------------------

 -------------------
 Title Card Required
 -------------------
 Symbolic Z-matrix:
 Charge =  0 Multiplicity = 1

 SCF Done:  E(RB3LYP) =  -4599.79040361     A.U. after   17 cycles
 SCF Done:  E(RB3LYP) =  -4599.72174807     A.U. after   21 cycles
 SCF Done:  E(RB3LYP) =  -4599.81914984     A.U. after   15 cycles
 SCF Done:  E(RB3LYP) =  -4599.78035667     A.U. after   18 cycles
 SCF Done:  E(RB3LYP) =  -4599.86365895     A.U. after   16 cycles
 SCF Done:  E(RB3LYP) =  -4599.87064309     A.U. after   18 cycles
 SCF Done:  E(RB3LYP) =  -4599.80440562     A.U. after   18 cycles
 SCF Done:  E(RB3LYP) =  -4599.90204523     A.U. after   16 cycles
 SCF Done:  E(RB3LYP) =  -4599.91588869     A.U. after   16 cycles
 SCF Done:  E(RB3LYP) =  -4599.92653788     A.U. after   16 cycles
 SCF Done:  E(RB3LYP) =  -4599.97055756     A.U. after   11 cycles
 SCF Done:  E(RB3LYP) =  -4599.97056002     A.U. after   10 cycles
 SCF Done:  E(RB3LYP) =  -4599.97056181     A.U. after   10 cycles
 SCF Done:  E(RB3LYP) =  -4599.97056512     A.U. after   11 cycles
 SCF Done:  E(RB3LYP) =  -4599.97056982     A.U. after   11 cycles
 SCF Done:  E(RB3LYP) =  -4599.97057849     A.U. after   12 cycles
 SCF Done:  E(RB3LYP) =  -4599.97058559     A.U. after   12 cycles
 SCF Done:  E(RB3LYP) =  -4599.97059289     A.U. after   12 cycles
 SCF Done:  E(RB3LYP) =  -4599.97059465     A.U. after   11 cycles
 SCF Done:  E(RB3LYP) =  -4599.97059479     A.U. after    9 cycles
 Optimization completed.
    -- Stationary point found.

                         Standard orientation:
 ---------------------------------------------------------------------
 Center     Atomic      Atomic             Coordinates (Angstroms)
 Number     Number       Type             X           Y           Z
 ---------------------------------------------------------------------
      1          6           0       -0.787435   -0.000287    0.164665
      2          6           0       -1.449069   -0.003566    1.388684
      3          6           0       -2.835985   -0.003777    1.450083
      4          6           0       -3.596728   -0.000735    0.275458
      5          6           0       -2.939135    0.002666   -0.966112
      6          6           0       -1.538593    0.002915   -1.015079
      7          6           0        0.705699   -0.000248    0.143177
      8          6           0        1.421185    1.202864    0.147136
      9          6           0        2.821188    1.214485    0.147011
     10          6           0        3.520578   -0.000621    0.144029
     11          6           0        2.820927   -1.215478    0.141989
     12          6           0        1.420864   -1.203490    0.142072
     13          1           0       -0.879206   -0.006015    2.308282
     14         17           0        0.539467   -2.705854    0.132908
     15         17           0       -0.711345    0.007247   -2.548221
     16         17           0        3.684523   -2.719904    0.139975
     17         17           0       -3.862422    0.006502   -2.435740
     18         17           0        5.255130   -0.000822    0.145249
     19         17           0       -5.329586   -0.001171    0.351722
     20         17           0        3.685286    2.718623    0.151182
     21         17           0       -3.595497   -0.007912    3.019384
     22         17           0        0.540222    2.705506    0.144308
 ---------------------------------------------------------------------

 The electronic state is 1-A.
 Alpha  occ. eigenvalues -- -101.58824-101.58720-101.58719-101.58686-101.58686
 Alpha  occ. eigenvalues -- -101.58343-101.58309-101.58275-101.58159 -10.29287
 Alpha  occ. eigenvalues --  -10.28973 -10.28967 -10.28892 -10.28892 -10.28616
 Alpha  occ. eigenvalues --  -10.28551 -10.28188 -10.27927 -10.25180 -10.24397
 Alpha  occ. eigenvalues --  -10.22707  -9.50290  -9.50185  -9.50185  -9.50162
 Alpha  occ. eigenvalues --   -9.50161  -9.49806  -9.49775  -9.49751  -9.49615
 Alpha  occ. eigenvalues --   -7.26800  -7.26694  -7.26694  -7.26657  -7.26657
 Alpha  occ. eigenvalues --   -7.26311  -7.26281  -7.26239  -7.26108  -7.25771
 Alpha  occ. eigenvalues --   -7.25678  -7.25663  -7.25663  -7.25640  -7.25640
 Alpha  occ. eigenvalues --   -7.25576  -7.25576  -7.25563  -7.25563  -7.25288
 Alpha  occ. eigenvalues --   -7.25256  -7.25228  -7.25199  -7.25168  -7.25162
 Alpha  occ. eigenvalues --   -7.25091  -7.25031  -0.97972  -0.96556  -0.93282
 Alpha  occ. eigenvalues --   -0.92699  -0.91799  -0.89935  -0.88739  -0.87684
 Alpha  occ. eigenvalues --   -0.87196  -0.85665  -0.84558  -0.79729  -0.76105
 Alpha  occ. eigenvalues --   -0.75330  -0.74703  -0.67313  -0.64541  -0.64033
 Alpha  occ. eigenvalues --   -0.62299  -0.56989  -0.55641  -0.55217  -0.53166
 Alpha  occ. eigenvalues --   -0.50487  -0.49235  -0.48055  -0.47918  -0.47684
 Alpha  occ. eigenvalues --   -0.47398  -0.46732  -0.45536  -0.44188  -0.43096
 Alpha  occ. eigenvalues --   -0.42824  -0.41988  -0.40583  -0.40171  -0.38516
 Alpha  occ. eigenvalues --   -0.37052  -0.36651  -0.36573  -0.36207  -0.36031
 Alpha  occ. eigenvalues --   -0.35850  -0.35497  -0.35283  -0.34039  -0.33989
 Alpha  occ. eigenvalues --   -0.33986  -0.33505  -0.32140  -0.31997  -0.28248
 Alpha  occ. eigenvalues --   -0.28092  -0.27472  -0.27200
 Alpha virt. eigenvalues --   -0.07199  -0.07102  -0.06617  -0.06575  -0.06011
 Alpha virt. eigenvalues --   -0.05036  -0.01425  -0.01051  -0.00663  -0.00005
 Alpha virt. eigenvalues --    0.01197   0.01679   0.01920   0.01996   0.02134

 Mulliken charges:
               1
     1  C   -0.439609
     2  C   -0.931494
     3  C   -0.426099
     4  C   -0.140063
     5  C   -0.034892
     6  C   -0.750095
     7  C   -0.794970
     8  C   -1.350420
     9  C    0.144867
    10  C    0.270226
    11  C    0.143443
    12  C   -1.351033
    13  H    0.151034
    14  Cl   0.590716
    15  Cl   0.563344
    16  Cl   0.630693
    17  Cl   0.609884
    18  Cl   0.682251
    19  Cl   0.635739
    20  Cl   0.630795
    21  Cl   0.575275
    22  Cl   0.590407
 Sum of Mulliken charges =  -0.00000

 Dipole moment (field-independent basis, Debye):
    X=              0.6019    Y=             -0.0018    Z=              0.7031  Tot=              0.9256
 Quadrupole moment (field-independent basis, Debye-Ang):
   XX=           -184.3970   YY=           -181.9191   ZZ=           -180.4980
   XY=             -0.0003   XZ=              0.3385   YZ=             -0.0040

 Normal termination of Gaussian 16 at Sat Apr  2 00:33:53 2022.
