 Gaussian 16, Revision B.01,
 Gaussian 16:  EM64L-G16RevB.01 20-Dec-2017

 --------------------------------
 # opt b3lyp/6-311+g(d,p) scf=xqc
 --------------------------------

 -------------------
 Title Card Required
 -------------------
 Symbolic Z-matrix:
 Charge =  0 Multiplicity = 1

 SCF Done:  E(RB3LYP) =  -1841.70478181     A.U. after   28 cycles
 SCF Done:  E(RB3LYP) =  -1841.81225713     A.U. after   20 cycles
 SCF Done:  E(RB3LYP) =  -1841.89785045     A.U. after   20 cycles
 SCF Done:  E(RB3LYP) =  -1841.90165158     A.U. after   24 cycles
 SCF Done:  E(RB3LYP) =  -1841.98480954     A.U. after   24 cycles
 SCF Done:  E(RB3LYP) =  -1842.00646977     A.U. after   20 cycles
 SCF Done:  E(RB3LYP) =  -1841.23069817     A.U. after   23 cycles
 SCF Done:  E(RB3LYP) =  -1841.52011651     A.U. after   19 cycles
 SCF Done:  E(RB3LYP) =  -1842.03398725     A.U. after   16 cycles
 SCF Done:  E(RB3LYP) =  -1842.08177503     A.U. after   16 cycles
 SCF Done:  E(RB3LYP) =  -1842.28090137     A.U. after   11 cycles
 SCF Done:  E(RB3LYP) =  -1842.28090225     A.U. after   11 cycles
 SCF Done:  E(RB3LYP) =  -1842.28090343     A.U. after   11 cycles
 SCF Done:  E(RB3LYP) =  -1842.28090544     A.U. after   12 cycles
 SCF Done:  E(RB3LYP) =  -1842.28090831     A.U. after   11 cycles
 SCF Done:  E(RB3LYP) =  -1842.28091230     A.U. after   12 cycles
 SCF Done:  E(RB3LYP) =  -1842.28091471     A.U. after   12 cycles
 SCF Done:  E(RB3LYP) =  -1842.28091800     A.U. after   12 cycles
 SCF Done:  E(RB3LYP) =  -1842.28091881     A.U. after   12 cycles
 SCF Done:  E(RB3LYP) =  -1842.28091910     A.U. after   10 cycles
 Optimization completed.
    -- Stationary point found.

                         Standard orientation:
 ---------------------------------------------------------------------
 Center     Atomic      Atomic             Coordinates (Angstroms)
 Number     Number       Type             X           Y           Z
 ---------------------------------------------------------------------
      1          6           0        0.694913   -0.000282    0.266445
      2          6           0        1.431786    1.191869    0.210829
      3          6           0        2.818580    1.206154    0.102949
      4          6           0        3.507455   -0.000474    0.048410
      5          6           0        2.818225   -1.207034    0.101657
      6          6           0        1.431462   -1.192564    0.209451
      7          6           0       -0.790401   -0.000306    0.400798
      8          6           0       -1.376223   -0.001658    1.671614
      9          6           0       -2.758059   -0.001787    1.828839
     10          6           0       -3.582244   -0.000605    0.705528
     11          6           0       -3.023813    0.000703   -0.568985
     12          6           0       -1.639124    0.000807   -0.710617
     13          1           0        3.343315    2.151404    0.061663
     14          1           0        4.587696   -0.000745   -0.036660
     15          1           0        3.343042   -2.152201    0.059501
     16          1           0       -0.729997   -0.002585    2.541807
     17          1           0       -3.188234   -0.002814    2.823330
     18          1           0       -4.660456   -0.000664    0.816089
     19          1           0       -3.650965    0.001658   -1.451224
     20         17           0        0.592390   -2.734290    0.270676
     21         17           0       -0.964350    0.002630   -2.333702
     22         17           0        0.593151    2.733838    0.273848
 ---------------------------------------------------------------------

 The electronic state is 1-A.
 Alpha  occ. eigenvalues -- -101.56167-101.56167-101.55633 -10.25707 -10.25706
 Alpha  occ. eigenvalues --  -10.24794 -10.22136 -10.21143 -10.20380 -10.20120
 Alpha  occ. eigenvalues --  -10.20113 -10.19510 -10.19502 -10.19405 -10.19044
 Alpha  occ. eigenvalues --   -9.47639  -9.47638  -9.47106  -7.24105  -7.24104
 Alpha  occ. eigenvalues --   -7.23564  -7.23125  -7.23124  -7.23073  -7.23072
 Alpha  occ. eigenvalues --   -7.22591  -7.22550  -0.92770  -0.89948  -0.88327
 Alpha  occ. eigenvalues --   -0.84709  -0.83777  -0.80109  -0.75451  -0.74746
 Alpha  occ. eigenvalues --   -0.73950  -0.65178  -0.62371  -0.61808  -0.60377
 Alpha  occ. eigenvalues --   -0.54710  -0.51884  -0.50799  -0.49043  -0.48286
 Alpha  occ. eigenvalues --   -0.46748  -0.44944  -0.44753  -0.44192  -0.42070
 Alpha  occ. eigenvalues --   -0.40808  -0.40383  -0.38767  -0.37464  -0.37333
 Alpha  occ. eigenvalues --   -0.37331  -0.34119  -0.33290  -0.32826  -0.32277
 Alpha  occ. eigenvalues --   -0.32007  -0.27266  -0.27223  -0.26076  -0.25766
 Alpha virt. eigenvalues --   -0.04235  -0.04111  -0.03408  -0.02841  -0.01400
 Alpha virt. eigenvalues --   -0.00184   0.00593   0.01629   0.02067   0.02150
 Alpha virt. eigenvalues --    0.02548   0.03236   0.04467   0.04680   0.05228

 Mulliken charges:
               1
     1  C    0.202887
     2  C   -0.222586
     3  C   -0.028379
     4  C   -0.303584
     5  C   -0.028033
     6  C   -0.222702
     7  C    0.736663
     8  C   -0.782249
     9  C   -0.290627
    10  C   -0.067332
    11  C   -0.460313
    12  C   -0.698529
    13  H    0.149132
    14  H    0.140363
    15  H    0.149122
    16  H    0.127370
    17  H    0.132001
    18  H    0.134323
    19  H    0.147451
    20  Cl   0.399061
    21  Cl   0.387074
    22  Cl   0.398888
 Sum of Mulliken charges =  -0.00000

 Dipole moment (field-independent basis, Debye):
    X=              0.5921    Y=             -0.0019    Z=              1.3704  Tot=              1.4928
 Quadrupole moment (field-independent basis, Debye-Ang):
   XX=            -88.0363   YY=           -112.4124   ZZ=           -107.3326
   XY=             -0.0002   XZ=             -2.4985   YZ=             -0.0061

 Normal termination of Gaussian 16 at Fri Apr  8 13:36:40 2022.
