 Gaussian 16, Revision B.01,
 Gaussian 16:  EM64L-G16RevB.01 20-Dec-2017

 --------------------------------
 # opt b3lyp/6-311+g(d,p) scf=xqc
 --------------------------------

 -------------------
 Title Card Required
 -------------------
 Symbolic Z-matrix:
 Charge =  0 Multiplicity = 1

 SCF Done:  E(RB3LYP) =  -3680.11578729     A.U. after   23 cycles
 SCF Done:  E(RB3LYP) =  -3679.85361903     A.U. after   23 cycles
 SCF Done:  E(RB3LYP) =  -3680.20605892     A.U. after   19 cycles
 SCF Done:  E(RB3LYP) =  -3680.27035627     A.U. after   18 cycles
 SCF Done:  E(RB3LYP) =  -3680.29293613     A.U. after   17 cycles
 SCF Done:  E(RB3LYP) =  -3680.36701109     A.U. after   18 cycles
 SCF Done:  E(RB3LYP) =  -3680.44891151     A.U. after   18 cycles
 SCF Done:  E(RB3LYP) =  -3680.50379864     A.U. after   18 cycles
 SCF Done:  E(RB3LYP) =  -3680.52710474     A.U. after   18 cycles
 SCF Done:  E(RB3LYP) =  -3680.56341076     A.U. after   16 cycles
 SCF Done:  E(RB3LYP) =  -3680.74006372     A.U. after   17 cycles
 SCF Done:  E(RB3LYP) =  -3680.74297146     A.U. after   16 cycles
 SCF Done:  E(RB3LYP) =  -3680.74355313     A.U. after   16 cycles
 SCF Done:  E(RB3LYP) =  -3680.74360905     A.U. after   12 cycles
 SCF Done:  E(RB3LYP) =  -3680.74362387     A.U. after   12 cycles
 SCF Done:  E(RB3LYP) =  -3680.74363585     A.U. after   12 cycles
 SCF Done:  E(RB3LYP) =  -3680.74364743     A.U. after   12 cycles
 SCF Done:  E(RB3LYP) =  -3680.74365178     A.U. after   12 cycles
 SCF Done:  E(RB3LYP) =  -3680.74365360     A.U. after   11 cycles
 SCF Done:  E(RB3LYP) =  -3680.74365406     A.U. after   11 cycles
 Optimization completed.
    -- Stationary point found.

                         Standard orientation:
 ---------------------------------------------------------------------
 Center     Atomic      Atomic             Coordinates (Angstroms)
 Number     Number       Type             X           Y           Z
 ---------------------------------------------------------------------
      1          6           0        1.530632    0.002601    0.186359
      2          6           0        2.343024   -0.010762   -0.951226
      3          6           0        3.725713   -0.008917   -0.821993
      4          6           0        4.328349    0.006022    0.431805
      5          6           0        3.527767    0.019602    1.568445
      6          6           0        2.141654    0.018024    1.443703
      7          6           0        0.046087    0.000206    0.026534
      8          6           0       -0.666592    1.201557   -0.066636
      9          6           0       -2.057111    1.211135   -0.230555
     10          6           0       -2.750843   -0.004517   -0.304427
     11          6           0       -2.054812   -1.218018   -0.215115
     12          6           0       -0.664398   -1.203640   -0.050940
     13          1           0        1.889781   -0.022557   -1.934043
     14          1           0        5.406912    0.007199    0.520870
     15          1           0        3.977667    0.031588    2.552702
     16         17           0        0.209814   -2.706108    0.067534
     17         17           0        1.164513    0.036702    2.899499
     18         17           0       -2.911943   -2.723905   -0.307988
     19         17           0       -4.474053   -0.007519   -0.508317
     20         17           0       -2.917038    2.714294   -0.342341
     21         17           0        4.725036   -0.025768   -2.264216
     22         17           0        0.205365    2.706658    0.030227
 ---------------------------------------------------------------------

 The electronic state is 1-A.
 Alpha  occ. eigenvalues -- -101.58445-101.58329-101.58327-101.58184-101.58183
 Alpha  occ. eigenvalues -- -101.57220-101.57064 -10.28840 -10.28520 -10.28515
 Alpha  occ. eigenvalues --  -10.28398 -10.28396 -10.26483 -10.26225 -10.24587
 Alpha  occ. eigenvalues --  -10.23373 -10.21684 -10.21554 -10.21496  -9.49912
 Alpha  occ. eigenvalues --   -9.49795  -9.49793  -9.49660  -9.49658  -9.48691
 Alpha  occ. eigenvalues --   -9.48519  -7.26421  -7.26303  -7.26301  -7.26155
 Alpha  occ. eigenvalues --   -7.26154  -7.25392  -7.25301  -7.25273  -7.25271
 Alpha  occ. eigenvalues --   -7.25187  -7.25185  -7.25156  -7.25140  -7.25138
 Alpha  occ. eigenvalues --   -7.25061  -7.25060  -7.24987  -7.24170  -7.24131
 Alpha  occ. eigenvalues --   -7.23997  -7.23964  -0.97406  -0.93469  -0.92817
 Alpha  occ. eigenvalues --   -0.91380  -0.89537  -0.88274  -0.87239  -0.84717
 Alpha  occ. eigenvalues --   -0.84113  -0.80879  -0.76245  -0.74863  -0.74139
 Alpha  occ. eigenvalues --   -0.67264  -0.64272  -0.63549  -0.61319  -0.56471
 Alpha  occ. eigenvalues --   -0.54947  -0.53001  -0.52176  -0.50084  -0.48656
 Alpha  occ. eigenvalues --   -0.47601  -0.47143  -0.47020  -0.45966  -0.44540
 Alpha  occ. eigenvalues --   -0.44451  -0.42609  -0.41476  -0.40776  -0.40542
 Alpha  occ. eigenvalues --   -0.39416  -0.38570  -0.36525  -0.36194  -0.36121
 Alpha  occ. eigenvalues --   -0.35798  -0.34819  -0.33787  -0.33575  -0.33435
 Alpha  occ. eigenvalues --   -0.33274  -0.32963  -0.31871  -0.29162  -0.27806
 Alpha  occ. eigenvalues --   -0.27013  -0.26402
 Alpha virt. eigenvalues --   -0.06685  -0.06527  -0.06111  -0.05480  -0.04772
 Alpha virt. eigenvalues --   -0.01324  -0.01037  -0.00456   0.00198   0.00518
 Alpha virt. eigenvalues --    0.00961   0.02162   0.02200   0.02481   0.02973

 Mulliken charges:
               1
     1  C   -0.147034
     2  C   -0.581366
     3  C    0.751191
     4  C   -0.566076
     5  C   -0.533424
     6  C   -0.622948
     7  C   -0.354347
     8  C   -1.248998
     9  C    0.044408
    10  C    0.052848
    11  C    0.039532
    12  C   -1.257653
    13  H    0.145493
    14  H    0.156696
    15  H    0.154866
    16  Cl   0.597876
    17  Cl   0.405401
    18  Cl   0.630200
    19  Cl   0.678086
    20  Cl   0.630938
    21  Cl   0.429519
    22  Cl   0.594789
 Sum of Mulliken charges =  -0.00000

 Dipole moment (field-independent basis, Debye):
    X=              1.3039    Y=              0.0048    Z=              0.3335  Tot=              1.3459
 Quadrupole moment (field-independent basis, Debye-Ang):
   XX=           -150.7432   YY=           -159.2836   ZZ=           -156.9468
   XY=              0.0744   XZ=              5.9707   YZ=              0.0290

 Normal termination of Gaussian 16 at Thu Apr  7 10:00:35 2022.
