 Gaussian 16, Revision B.01,
 Gaussian 16:  EM64L-G16RevB.01 20-Dec-2017

 --------------------------------
 # opt b3lyp/6-311+g(d,p) scf=xqc
 --------------------------------

 -------------------
 Title Card Required
 -------------------
 Symbolic Z-matrix:
 Charge =  0 Multiplicity = 1

 SCF Done:  E(RB3LYP) =  -1840.65598876     A.U. after   20 cycles
 SCF Done:  E(RB3LYP) =  -1841.16361432     A.U. after   17 cycles
 SCF Done:  E(RB3LYP) =  -1841.69664144     A.U. after   18 cycles
 SCF Done:  E(RB3LYP) =  -1841.96664892     A.U. after   20 cycles
 SCF Done:  E(RB3LYP) =  -1841.98626666     A.U. after   24 cycles
 SCF Done:  E(RB3LYP) =  -1842.02103065     A.U. after   19 cycles
 SCF Done:  E(RB3LYP) =  -1842.04765605     A.U. after   19 cycles
 SCF Done:  E(RB3LYP) =  -1842.06462700     A.U. after   18 cycles
 SCF Done:  E(RB3LYP) =  -1842.10461359     A.U. after   18 cycles
 SCF Done:  E(RB3LYP) =  -1842.13693862     A.U. after   15 cycles
 SCF Done:  E(RB3LYP) =  -1842.28280588     A.U. after   14 cycles
 SCF Done:  E(RB3LYP) =  -1842.28287879     A.U. after   14 cycles
 SCF Done:  E(RB3LYP) =  -1842.28299090     A.U. after   14 cycles
 SCF Done:  E(RB3LYP) =  -1842.28310916     A.U. after   15 cycles
 SCF Done:  E(RB3LYP) =  -1842.28313626     A.U. after   14 cycles
 SCF Done:  E(RB3LYP) =  -1842.28315862     A.U. after   14 cycles
 SCF Done:  E(RB3LYP) =  -1842.28315963     A.U. after   12 cycles
 SCF Done:  E(RB3LYP) =  -1842.28316040     A.U. after   12 cycles
 SCF Done:  E(RB3LYP) =  -1842.28316124     A.U. after   12 cycles
 SCF Done:  E(RB3LYP) =  -1842.28316152     A.U. after   12 cycles
 Optimization completed.
    -- Stationary point found.

                         Standard orientation:
 ---------------------------------------------------------------------
 Center     Atomic      Atomic             Coordinates (Angstroms)
 Number     Number       Type             X           Y           Z
 ---------------------------------------------------------------------
      1          6           0        0.312702   -0.057861    0.288531
      2          6           0        0.672913   -1.409120    0.349129
      3          6           0        2.004157   -1.807650    0.266847
      4          6           0        3.008993   -0.857069    0.123216
      5          6           0        2.661224    0.487915    0.066499
      6          6           0        1.333686    0.889210    0.148537
      7          6           0       -1.101947    0.405025    0.396730
      8          6           0       -1.970828    0.432137   -0.700114
      9          6           0       -3.281436    0.886273   -0.580255
     10          6           0       -3.745541    1.325862    0.655870
     11          6           0       -2.899880    1.313518    1.762698
     12          6           0       -1.592079    0.857984    1.627796
     13          1           0        2.252853   -2.859837    0.317226
     14          1           0        4.046041   -1.159487    0.057916
     15          1           0        1.080428    1.940246    0.095936
     16          1           0       -3.925045    0.894342   -1.450556
     17          1           0       -4.766262    1.678237    0.748796
     18          1           0       -3.255735    1.655420    2.727369
     19          1           0       -0.931277    0.841224    2.486955
     20         17           0       -0.557414   -2.645941    0.543926
     21         17           0       -1.415198   -0.102159   -2.280246
     22         17           0        3.918918    1.701778   -0.111712
 ---------------------------------------------------------------------

 The electronic state is 1-A.
 Alpha  occ. eigenvalues -- -101.56372-101.56167-101.55904 -10.25443 -10.25361
 Alpha  occ. eigenvalues --  -10.25140 -10.22025 -10.21416 -10.20663 -10.20639
 Alpha  occ. eigenvalues --  -10.20602 -10.19864 -10.19863 -10.19734 -10.19414
 Alpha  occ. eigenvalues --   -9.47827  -9.47637  -9.47378  -7.24291  -7.24102
 Alpha  occ. eigenvalues --   -7.23836  -7.23308  -7.23275  -7.23120  -7.23076
 Alpha  occ. eigenvalues --   -7.22863  -7.22819  -0.92544  -0.90467  -0.88570
 Alpha  occ. eigenvalues --   -0.85051  -0.83583  -0.80639  -0.76260  -0.74902
 Alpha  occ. eigenvalues --   -0.73237  -0.65897  -0.63063  -0.62484  -0.59773
 Alpha  occ. eigenvalues --   -0.54317  -0.52246  -0.51002  -0.49265  -0.48707
 Alpha  occ. eigenvalues --   -0.46972  -0.45159  -0.44905  -0.44500  -0.42211
 Alpha  occ. eigenvalues --   -0.41072  -0.40716  -0.39064  -0.38059  -0.37549
 Alpha  occ. eigenvalues --   -0.37435  -0.34579  -0.32877  -0.32580  -0.32388
 Alpha  occ. eigenvalues --   -0.32237  -0.28505  -0.27703  -0.26136  -0.25498
 Alpha virt. eigenvalues --   -0.04724  -0.04422  -0.03409  -0.03022  -0.00736
 Alpha virt. eigenvalues --   -0.00430   0.00732   0.00924   0.01483   0.01869
 Alpha virt. eigenvalues --    0.02472   0.03378   0.04031   0.04648   0.04976

 Mulliken charges:
               1
     1  C    0.565852
     2  C   -0.260483
     3  C   -0.724863
     4  C   -0.636148
     5  C    0.817278
     6  C   -0.806313
     7  C    1.018091
     8  C   -0.524188
     9  C   -0.594683
    10  C   -0.118604
    11  C   -0.191013
    12  C   -0.701743
    13  H    0.154262
    14  H    0.153888
    15  H    0.144703
    16  H    0.149281
    17  H    0.135233
    18  H    0.133249
    19  H    0.128607
    20  Cl   0.378679
    21  Cl   0.380180
    22  Cl   0.398737
 Sum of Mulliken charges =  -0.00000

 Dipole moment (field-independent basis, Debye):
    X=             -0.8993    Y=              0.4475    Z=              1.4420  Tot=              1.7574
 Quadrupole moment (field-independent basis, Debye-Ang):
   XX=            -99.0765   YY=           -107.6225   ZZ=           -107.5922
   XY=            -10.0229   XZ=             -1.7781   YZ=              2.0766

 Normal termination of Gaussian 16 at Mon Mar 14 16:13:08 2022.
