 Gaussian 16, Revision B.01,
 Gaussian 16:  EM64L-G16RevB.01 20-Dec-2017

 --------------------------------
 # opt b3lyp/6-311+g(d,p) scf=xqc
 --------------------------------

 -------------------
 Title Card Required
 -------------------
 Symbolic Z-matrix:
 Charge =  0 Multiplicity = 1

 SCF Done:  E(RB3LYP) =  -2760.95120079     A.U. after   32 cycles
 SCF Done:  E(RB3LYP) =  -2761.07221377     A.U. after   19 cycles
 SCF Done:  E(RB3LYP) =  -2760.24440874     A.U. after   25 cycles
 SCF Done:  E(RB3LYP) =  -2761.22677440     A.U. after   17 cycles
 SCF Done:  E(RB3LYP) =  -2761.29578301     A.U. after   16 cycles
 SCF Done:  E(RB3LYP) =  -2761.35994667     A.U. after   17 cycles
 SCF Done:  E(RB3LYP) =  -2761.39458341     A.U. after   14 cycles
 SCF Done:  E(RB3LYP) =  -2761.41850329     A.U. after   15 cycles
 SCF Done:  E(RB3LYP) =  -2761.27755240     A.U. after   19 cycles
 SCF Done:  E(RB3LYP) =  -2761.42708642     A.U. after   15 cycles
 SCF Done:  E(RB3LYP) =  -2761.51826129     A.U. after   10 cycles
 SCF Done:  E(RB3LYP) =  -2761.51826326     A.U. after   11 cycles
 SCF Done:  E(RB3LYP) =  -2761.51826635     A.U. after   11 cycles
 SCF Done:  E(RB3LYP) =  -2761.51827115     A.U. after   12 cycles
 SCF Done:  E(RB3LYP) =  -2761.51827758     A.U. after   12 cycles
 SCF Done:  E(RB3LYP) =  -2761.51828621     A.U. after   12 cycles
 SCF Done:  E(RB3LYP) =  -2761.51829195     A.U. after   12 cycles
 SCF Done:  E(RB3LYP) =  -2761.51829323     A.U. after   11 cycles
 SCF Done:  E(RB3LYP) =  -2761.51829372     A.U. after   11 cycles
 SCF Done:  E(RB3LYP) =  -2761.51829398     A.U. after   11 cycles
 Optimization completed.
    -- Stationary point found.

                         Standard orientation:
 ---------------------------------------------------------------------
 Center     Atomic      Atomic             Coordinates (Angstroms)
 Number     Number       Type             X           Y           Z
 ---------------------------------------------------------------------
      1          6           0        0.836887    0.104869   -0.141336
      2          6           0        1.707556   -0.420159    0.818469
      3          6           0        3.035736   -0.667624    0.497402
      4          6           0        3.527397   -0.400809   -0.776124
      5          6           0        2.669285    0.121904   -1.737127
      6          6           0        1.337439    0.371361   -1.419371
      7          6           0       -0.585209    0.370010    0.225932
      8          6           0       -0.979768    1.602632    0.758511
      9          6           0       -2.298863    1.857290    1.118025
     10          6           0       -3.256372    0.868351    0.948560
     11          6           0       -2.900019   -0.370152    0.423200
     12          6           0       -1.571314   -0.619146    0.064097
     13          1           0        1.340933   -0.633322    1.814243
     14          1           0        4.564358   -0.597470   -1.015437
     15          1           0        3.032230    0.336609   -2.733871
     16          1           0       -2.571390    2.821574    1.525650
     17          1           0       -4.287049    1.051348    1.223087
     18         17           0       -1.117175   -2.167111   -0.598162
     19         17           0        0.286381    1.030204   -2.659475
     20         17           0       -4.140037   -1.583785    0.230483
     21         17           0        0.202274    2.877881    0.983638
     22         17           0        4.108815   -1.327182    1.720277
 ---------------------------------------------------------------------

 The electronic state is 1-A.
 Alpha  occ. eigenvalues -- -101.57372-101.57327-101.57171-101.56719-101.56675
 Alpha  occ. eigenvalues --  -10.27397 -10.26815 -10.26735 -10.25972 -10.25762
 Alpha  occ. eigenvalues --  -10.23588 -10.22768 -10.21804 -10.21485 -10.21168
 Alpha  occ. eigenvalues --  -10.21089 -10.21033  -9.48847  -9.48785  -9.48640
 Alpha  occ. eigenvalues --   -9.48190  -9.48129  -7.25333  -7.25271  -7.25112
 Alpha  occ. eigenvalues --   -7.24655  -7.24596  -7.24331  -7.24264  -7.24256
 Alpha  occ. eigenvalues --   -7.24207  -7.24121  -7.24071  -7.23669  -7.23630
 Alpha  occ. eigenvalues --   -7.23609  -7.23576  -0.94883  -0.92423  -0.90320
 Alpha  occ. eigenvalues --   -0.89136  -0.87891  -0.84267  -0.83984  -0.81036
 Alpha  occ. eigenvalues --   -0.76694  -0.74498  -0.73775  -0.67239  -0.64000
 Alpha  occ. eigenvalues --   -0.62656  -0.60784  -0.54655  -0.53172  -0.52866
 Alpha  occ. eigenvalues --   -0.51617  -0.49611  -0.47862  -0.46376  -0.46169
 Alpha  occ. eigenvalues --   -0.45490  -0.44375  -0.43046  -0.42378  -0.40978
 Alpha  occ. eigenvalues --   -0.39952  -0.39600  -0.39219  -0.37957  -0.36467
 Alpha  occ. eigenvalues --   -0.34752  -0.33604  -0.33349  -0.33217  -0.32991
 Alpha  occ. eigenvalues --   -0.32842  -0.32457  -0.28771  -0.28309  -0.26351
 Alpha  occ. eigenvalues --   -0.25940
 Alpha virt. eigenvalues --   -0.05578  -0.05409  -0.04889  -0.04175  -0.03046
 Alpha virt. eigenvalues --   -0.00743  -0.00263   0.00305   0.00717   0.01085
 Alpha virt. eigenvalues --    0.01991   0.02419   0.02705   0.03264   0.04362

 Mulliken charges:
               1
     1  C   -0.489937
     2  C   -0.659209
     3  C    0.714490
     4  C   -0.598055
     5  C   -0.265703
     6  C   -0.594484
     7  C    0.123767
     8  C   -0.080878
     9  C   -0.368391
    10  C   -0.600150
    11  C    1.104114
    12  C   -1.323900
    13  H    0.144977
    14  H    0.155658
    15  H    0.153688
    16  H    0.156524
    17  H    0.159233
    18  Cl   0.547296
    19  Cl   0.390419
    20  Cl   0.480554
    21  Cl   0.427483
    22  Cl   0.422504
 Sum of Mulliken charges =  -0.00000

 Dipole moment (field-independent basis, Debye):
    X=             -0.2691    Y=              1.0901    Z=              0.2680  Tot=              1.1543
 Quadrupole moment (field-independent basis, Debye-Ang):
   XX=           -124.7260   YY=           -134.5666   ZZ=           -131.3889
   XY=             -5.3724   XZ=             -9.3402   YZ=              2.2893

 Normal termination of Gaussian 16 at Sat Apr 23 15:12:20 2022.
