 Gaussian 16, Revision B.01,
 Gaussian 16:  EM64L-G16RevB.01 20-Dec-2017

 --------------------------------
 # opt b3lyp/6-311+g(d,p) scf=xqc
 --------------------------------

 -------------------
 Title Card Required
 -------------------
 Symbolic Z-matrix:
 Charge =  0 Multiplicity = 1

 SCF Done:  E(RB3LYP) =  -2301.43136226     A.U. after   19 cycles
 SCF Done:  E(RB3LYP) =  -2301.26599902     A.U. after   28 cycles
 SCF Done:  E(RB3LYP) =  -2301.58139440     A.U. after   16 cycles
 SCF Done:  E(RB3LYP) =  -2301.64232780     A.U. after   16 cycles
 SCF Done:  E(RB3LYP) =  -2301.75100602     A.U. after   14 cycles
 SCF Done:  E(RB3LYP) =  -2301.80032327     A.U. after   16 cycles
 SCF Done:  E(RB3LYP) =  -2301.82556538     A.U. after   15 cycles
 SCF Done:  E(RB3LYP) =  -2301.83152335     A.U. after   16 cycles
 SCF Done:  E(RB3LYP) =  -2301.70129723     A.U. after   18 cycles
 SCF Done:  E(RB3LYP) =  -2301.82941087     A.U. after   14 cycles
 SCF Done:  E(RB3LYP) =  -2301.89562138     A.U. after   12 cycles
 SCF Done:  E(RB3LYP) =  -2301.89565232     A.U. after   13 cycles
 SCF Done:  E(RB3LYP) =  -2301.89567967     A.U. after   13 cycles
 SCF Done:  E(RB3LYP) =  -2301.89571156     A.U. after   12 cycles
 SCF Done:  E(RB3LYP) =  -2301.89574717     A.U. after   13 cycles
 SCF Done:  E(RB3LYP) =  -2301.89576546     A.U. after   12 cycles
 SCF Done:  E(RB3LYP) =  -2301.89577301     A.U. after   12 cycles
 SCF Done:  E(RB3LYP) =  -2301.89577597     A.U. after   12 cycles
 SCF Done:  E(RB3LYP) =  -2301.89577619     A.U. after   11 cycles
 SCF Done:  E(RB3LYP) =  -2301.89577624     A.U. after   11 cycles
 Optimization completed.
    -- Stationary point found.

                         Standard orientation:
 ---------------------------------------------------------------------
 Center     Atomic      Atomic             Coordinates (Angstroms)
 Number     Number       Type             X           Y           Z
 ---------------------------------------------------------------------
      1          6           0       -0.709198    0.836763   -0.235259
      2          6           0       -1.103991    1.742337   -1.222921
      3          6           0       -2.421352    1.786667   -1.667070
      4          6           0       -3.367213    0.924658   -1.125835
      5          6           0       -2.992546    0.017941   -0.137734
      6          6           0       -1.667531   -0.030180    0.311338
      7          6           0        0.709298    0.836999    0.234693
      8          6           0        1.104398    1.743684    1.221211
      9          6           0        2.421875    1.788457    1.664970
     10          6           0        3.367565    0.925823    1.124436
     11          6           0        2.992595    0.017975    0.137485
     12          6           0        1.667446   -0.030656   -0.311136
     13          1           0       -0.362004    2.408884   -1.645891
     14          1           0       -2.713788    2.491408   -2.436156
     15          1           0       -4.396629    0.944910   -1.459493
     16          1           0        0.362556    2.410755    1.643609
     17          1           0        2.714538    2.494044    2.433192
     18          1           0        4.397080    0.946446    1.457766
     19         17           0        1.194719   -1.163601   -1.552934
     20         17           0       -1.195153   -1.161407    1.554767
     21         17           0        4.213264   -1.045487   -0.522466
     22         17           0       -4.213408   -1.044755    0.523098
 ---------------------------------------------------------------------

 The electronic state is 1-A.
 Alpha  occ. eigenvalues -- -101.56639-101.56639-101.56586-101.56586 -10.26260
 Alpha  occ. eigenvalues --  -10.26260 -10.26077 -10.26077 -10.22215 -10.22186
 Alpha  occ. eigenvalues --  -10.20664 -10.20664 -10.20328 -10.20327 -10.20268
 Alpha  occ. eigenvalues --  -10.20267  -9.48100  -9.48100  -9.48063  -9.48062
 Alpha  occ. eigenvalues --   -7.24580  -7.24580  -7.24542  -7.24542  -7.23582
 Alpha  occ. eigenvalues --   -7.23582  -7.23548  -7.23548  -7.23524  -7.23524
 Alpha  occ. eigenvalues --   -7.23478  -7.23478  -0.93751  -0.92529  -0.87760
 Alpha  occ. eigenvalues --   -0.86729  -0.86027  -0.85174  -0.79621  -0.74931
 Alpha  occ. eigenvalues --   -0.74927  -0.74898  -0.66304  -0.62463  -0.62232
 Alpha  occ. eigenvalues --   -0.61103  -0.54600  -0.52689  -0.51265  -0.50882
 Alpha  occ. eigenvalues --   -0.48955  -0.47094  -0.45488  -0.45398  -0.45307
 Alpha  occ. eigenvalues --   -0.43058  -0.43057  -0.41150  -0.39527  -0.39420
 Alpha  occ. eigenvalues --   -0.38368  -0.36108  -0.35592  -0.35148  -0.34719
 Alpha  occ. eigenvalues --   -0.34018  -0.33689  -0.31768  -0.31708  -0.27572
 Alpha  occ. eigenvalues --   -0.27278  -0.26344  -0.26307
 Alpha virt. eigenvalues --   -0.04865  -0.04750  -0.04192  -0.03441  -0.02262
 Alpha virt. eigenvalues --   -0.01289  -0.00469   0.00768   0.02054   0.02170
 Alpha virt. eigenvalues --    0.02709   0.02709   0.03011   0.04117   0.04873

 Mulliken charges:
               1
     1  C    0.499040
     2  C   -0.399640
     3  C   -0.467271
     4  C   -0.411063
     5  C    0.279849
     6  C   -0.946385
     7  C    0.498649
     8  C   -0.399457
     9  C   -0.467274
    10  C   -0.411190
    11  C    0.280912
    12  C   -0.947922
    13  H    0.130681
    14  H    0.139073
    15  H    0.152839
    16  H    0.130678
    17  H    0.139075
    18  H    0.152840
    19  Cl   0.564782
    20  Cl   0.564771
    21  Cl   0.458476
    22  Cl   0.458535
 Sum of Mulliken charges =  -0.00000

 Dipole moment (field-independent basis, Debye):
    X=              0.0005    Y=              3.5216    Z=             -0.0020  Tot=              3.5216
 Quadrupole moment (field-independent basis, Debye-Ang):
   XX=           -117.7234   YY=           -115.6764   ZZ=           -116.6034
   XY=              0.0069   XZ=              9.7809   YZ=             -0.0006

 Normal termination of Gaussian 16 at Wed Apr 13 18:33:03 2022.
