 Gaussian 16, Revision B.01,
 Gaussian 16:  EM64L-G16RevB.01 20-Dec-2017

 --------------------------------
 # opt b3lyp/6-311+g(d,p) scf=xqc
 --------------------------------

 -------------------
 Title Card Required
 -------------------
 Symbolic Z-matrix:
 Charge =  0 Multiplicity = 1

 SCF Done:  E(RB3LYP) =  -3219.51586795     A.U. after   19 cycles
 SCF Done:  E(RB3LYP) =  -3220.02563021     A.U. after   16 cycles
 SCF Done:  E(RB3LYP) =  -3220.56037431     A.U. after   17 cycles
 SCF Done:  E(RB3LYP) =  -3220.83007533     A.U. after   20 cycles
 SCF Done:  E(RB3LYP) =  -3220.84405226     A.U. after   22 cycles
 SCF Done:  E(RB3LYP) =  -3220.87204060     A.U. after   18 cycles
 SCF Done:  E(RB3LYP) =  -3220.88128982     A.U. after   17 cycles
 SCF Done:  E(RB3LYP) =  -3220.88851751     A.U. after   17 cycles
 SCF Done:  E(RB3LYP) =  -3220.89747978     A.U. after   18 cycles
 SCF Done:  E(RB3LYP) =  -3220.91094138     A.U. after   18 cycles
 SCF Done:  E(RB3LYP) =  -3221.13132185     A.U. after   14 cycles
 SCF Done:  E(RB3LYP) =  -3221.13147023     A.U. after   15 cycles
 SCF Done:  E(RB3LYP) =  -3221.13148914     A.U. after   13 cycles
 SCF Done:  E(RB3LYP) =  -3221.13149252     A.U. after   12 cycles
 SCF Done:  E(RB3LYP) =  -3221.13149673     A.U. after   12 cycles
 SCF Done:  E(RB3LYP) =  -3221.13149869     A.U. after   12 cycles
 SCF Done:  E(RB3LYP) =  -3221.13150001     A.U. after   11 cycles
 SCF Done:  E(RB3LYP) =  -3221.13150087     A.U. after   11 cycles
 SCF Done:  E(RB3LYP) =  -3221.13150111     A.U. after   11 cycles
 SCF Done:  E(RB3LYP) =  -3221.13150116     A.U. after   10 cycles
 Optimization completed.
    -- Stationary point found.

                         Standard orientation:
 ---------------------------------------------------------------------
 Center     Atomic      Atomic             Coordinates (Angstroms)
 Number     Number       Type             X           Y           Z
 ---------------------------------------------------------------------
      1          6           0        1.399513    0.233407    0.258088
      2          6           0        2.052191    0.414139    1.482324
      3          6           0        3.439173    0.451899    1.574081
      4          6           0        4.191633    0.307853    0.413347
      5          6           0        3.582918    0.131535   -0.823551
      6          6           0        2.192715    0.096763   -0.886640
      7          6           0       -0.091903    0.222515    0.204546
      8          6           0       -0.777904    1.433526    0.152301
      9          6           0       -2.165940    1.473127    0.118589
     10          6           0       -2.908327    0.287964    0.137787
     11          6           0       -2.230609   -0.941471    0.194623
     12          6           0       -0.829400   -0.967752    0.228989
     13          1           0        1.456451    0.519801    2.381482
     14          1           0        3.927639    0.589272    2.529646
     15          1           0        4.174036    0.024689   -1.722425
     16          1           0       -0.222357    2.361606    0.128932
     17         17           0        0.016034   -2.490059    0.310154
     18         17           0        1.445093   -0.118586   -2.458485
     19         17           0       -3.133017   -2.424867    0.226498
     20         17           0       -4.642631    0.335917    0.094922
     21         17           0        5.942709    0.352192    0.502961
     22         17           0       -2.949372    3.030321    0.050743
 ---------------------------------------------------------------------

 The electronic state is 1-A.
 Alpha  occ. eigenvalues -- -101.58018-101.57965-101.57857-101.57726-101.57307
 Alpha  occ. eigenvalues -- -101.57258 -10.28213 -10.28134 -10.27677 -10.27527
 Alpha  occ. eigenvalues --  -10.26899 -10.26615 -10.23630 -10.22863 -10.22183
 Alpha  occ. eigenvalues --  -10.21669 -10.21637 -10.21229  -9.49482  -9.49432
 Alpha  occ. eigenvalues --   -9.49313  -9.49200  -9.48778  -9.48712  -7.25986
 Alpha  occ. eigenvalues --   -7.25936  -7.25804  -7.25689  -7.25246  -7.25180
 Alpha  occ. eigenvalues --   -7.24963  -7.24914  -7.24877  -7.24826  -7.24790
 Alpha  occ. eigenvalues --   -7.24731  -7.24681  -7.24608  -7.24260  -7.24213
 Alpha  occ. eigenvalues --   -7.24193  -7.24154  -0.96273  -0.93393  -0.91598
 Alpha  occ. eigenvalues --   -0.90035  -0.89137  -0.86870  -0.85752  -0.84455
 Alpha  occ. eigenvalues --   -0.79449  -0.77372  -0.75524  -0.73942  -0.65980
 Alpha  occ. eigenvalues --   -0.64688  -0.63821  -0.61181  -0.55611  -0.54726
 Alpha  occ. eigenvalues --   -0.52595  -0.52010  -0.49630  -0.48549  -0.46992
 Alpha  occ. eigenvalues --   -0.46727  -0.46368  -0.46041  -0.43844  -0.43647
 Alpha  occ. eigenvalues --   -0.42151  -0.40644  -0.40216  -0.40063  -0.38229
 Alpha  occ. eigenvalues --   -0.37908  -0.35701  -0.35547  -0.35160  -0.34395
 Alpha  occ. eigenvalues --   -0.34003  -0.33551  -0.33504  -0.33213  -0.31795
 Alpha  occ. eigenvalues --   -0.28437  -0.27812  -0.27135  -0.26765
 Alpha virt. eigenvalues --   -0.06369  -0.06034  -0.05079  -0.04905  -0.04706
 Alpha virt. eigenvalues --   -0.01891  -0.00818  -0.00246   0.00749   0.01358
 Alpha virt. eigenvalues --    0.01719   0.02039   0.02168   0.02531   0.03716

 Mulliken charges:
               1
     1  C    0.374740
     2  C   -0.576744
     3  C   -0.670049
     4  C    0.904096
     5  C   -0.432056
     6  C   -0.883700
     7  C   -0.139233
     8  C   -0.800990
     9  C   -0.516434
    10  C   -0.166030
    11  C    0.028389
    12  C   -0.831455
    13  H    0.134770
    14  H    0.155180
    15  H    0.171609
    16  H    0.151741
    17  Cl   0.553441
    18  Cl   0.352006
    19  Cl   0.611098
    20  Cl   0.616312
    21  Cl   0.408176
    22  Cl   0.555132
 Sum of Mulliken charges =  -0.00000

 Dipole moment (field-independent basis, Debye):
    X=              1.0789    Y=              0.9118    Z=              1.2163  Tot=              1.8641
 Quadrupole moment (field-independent basis, Debye-Ang):
   XX=           -150.5931   YY=           -146.1292   ZZ=           -141.1292
   XY=              1.1046   XZ=              1.4315   YZ=              1.2965

 Normal termination of Gaussian 16 at Thu Mar 17 06:13:11 2022.
