 Gaussian 16, Revision B.01,
 Gaussian 16:  EM64L-G16RevB.01 20-Dec-2017

 --------------------------------
 # opt b3lyp/6-311+g(d,p) scf=xqc
 --------------------------------

 -------------------
 Title Card Required
 -------------------
 Symbolic Z-matrix:
 Charge =  0 Multiplicity = 1

 SCF Done:  E(RB3LYP) =  -1840.65710521     A.U. after   20 cycles
 SCF Done:  E(RB3LYP) =  -1841.16472628     A.U. after   17 cycles
 SCF Done:  E(RB3LYP) =  -1841.69763107     A.U. after   18 cycles
 SCF Done:  E(RB3LYP) =  -1841.96770758     A.U. after   19 cycles
 SCF Done:  E(RB3LYP) =  -1841.98809941     A.U. after   25 cycles
 SCF Done:  E(RB3LYP) =  -1842.02312273     A.U. after   18 cycles
 SCF Done:  E(RB3LYP) =  -1842.04939881     A.U. after   19 cycles
 SCF Done:  E(RB3LYP) =  -1842.06603398     A.U. after   18 cycles
 SCF Done:  E(RB3LYP) =  -1842.10588167     A.U. after   18 cycles
 SCF Done:  E(RB3LYP) =  -1842.13823090     A.U. after   15 cycles
 SCF Done:  E(RB3LYP) =  -1842.28284783     A.U. after   13 cycles
 SCF Done:  E(RB3LYP) =  -1842.28291847     A.U. after   13 cycles
 SCF Done:  E(RB3LYP) =  -1842.28298259     A.U. after   13 cycles
 SCF Done:  E(RB3LYP) =  -1842.28305467     A.U. after   13 cycles
 SCF Done:  E(RB3LYP) =  -1842.28308976     A.U. after   13 cycles
 SCF Done:  E(RB3LYP) =  -1842.28309595     A.U. after   12 cycles
 SCF Done:  E(RB3LYP) =  -1842.28309501     A.U. after   12 cycles
 SCF Done:  E(RB3LYP) =  -1842.28309440     A.U. after   11 cycles
 SCF Done:  E(RB3LYP) =  -1842.28309707     A.U. after   12 cycles
 SCF Done:  E(RB3LYP) =  -1842.28309435     A.U. after   12 cycles
 Optimization completed.
    -- Stationary point found.

                         Standard orientation:
 ---------------------------------------------------------------------
 Center     Atomic      Atomic             Coordinates (Angstroms)
 Number     Number       Type             X           Y           Z
 ---------------------------------------------------------------------
      1          6           0       -0.117409    0.445317   -0.117781
      2          6           0       -0.854328   -0.640146   -0.605221
      3          6           0       -2.243525   -0.684857   -0.521119
      4          6           0       -2.911586    0.383398    0.064430
      5          6           0       -2.219654    1.483678    0.558178
      6          6           0       -0.832455    1.500699    0.460009
      7          6           0        1.369123    0.521273   -0.218354
      8          6           0        2.218610   -0.075508    0.720546
      9          6           0        3.603512    0.025767    0.619819
     10          6           0        4.164871    0.736422   -0.436835
     11          6           0        3.342609    1.343751   -1.383079
     12          6           0        1.960137    1.234505   -1.268794
     13          1           0       -2.787991   -1.535516   -0.906740
     14          1           0       -2.753872    2.308126    1.011622
     15          1           0       -0.282356    2.350404    0.847273
     16          1           0        4.229047   -0.448242    1.365314
     17          1           0        5.243059    0.813829   -0.515731
     18          1           0        3.774154    1.898581   -2.207773
     19          1           0        1.315834    1.700126   -2.005836
     20         17           0       -0.035943   -1.997419   -1.359109
     21         17           0        1.545432   -0.970644    2.076224
     22         17           0       -4.663449    0.336704    0.175889
 ---------------------------------------------------------------------

 The electronic state is 1-A.
 Alpha  occ. eigenvalues -- -101.56500-101.56296-101.55894 -10.25839 -10.25679
 Alpha  occ. eigenvalues --  -10.25106 -10.21630 -10.21363 -10.20732 -10.20561
 Alpha  occ. eigenvalues --  -10.20294 -10.19852 -10.19829 -10.19722 -10.19402
 Alpha  occ. eigenvalues --   -9.47955  -9.47768  -9.47367  -7.24420  -7.24234
 Alpha  occ. eigenvalues --   -7.23825  -7.23437  -7.23401  -7.23251  -7.23203
 Alpha  occ. eigenvalues --   -7.22853  -7.22809  -0.92618  -0.90571  -0.88412
 Alpha  occ. eigenvalues --   -0.85064  -0.84203  -0.79595  -0.76511  -0.75399
 Alpha  occ. eigenvalues --   -0.73402  -0.64716  -0.63536  -0.62408  -0.60068
 Alpha  occ. eigenvalues --   -0.54970  -0.51731  -0.50963  -0.49214  -0.48476
 Alpha  occ. eigenvalues --   -0.47093  -0.45361  -0.44879  -0.44478  -0.42381
 Alpha  occ. eigenvalues --   -0.41134  -0.40772  -0.38944  -0.38030  -0.37424
 Alpha  occ. eigenvalues --   -0.37130  -0.34622  -0.33300  -0.33098  -0.32401
 Alpha  occ. eigenvalues --   -0.32197  -0.27771  -0.27468  -0.26276  -0.25947
 Alpha virt. eigenvalues --   -0.04725  -0.04299  -0.03405  -0.03055  -0.01191
 Alpha virt. eigenvalues --   -0.00529   0.00322   0.01479   0.01877   0.02014
 Alpha virt. eigenvalues --    0.02130   0.03241   0.04005   0.04586   0.04999

 Mulliken charges:
               1
     1  C    0.636974
     2  C   -0.853428
     3  C   -0.498127
     4  C    0.976174
     5  C   -0.825139
     6  C   -0.504562
     7  C    0.970530
     8  C   -0.384356
     9  C   -0.795847
    10  C   -0.077390
    11  C   -0.245728
    12  C   -0.524807
    13  H    0.169513
    14  H    0.152923
    15  H    0.133467
    16  H    0.149453
    17  H    0.134896
    18  H    0.133181
    19  H    0.128275
    20  Cl   0.348837
    21  Cl   0.381757
    22  Cl   0.393404
 Sum of Mulliken charges =  -0.00000

 Dipole moment (field-independent basis, Debye):
    X=              1.8061    Y=              2.0317    Z=             -0.6960  Tot=              2.8061
 Quadrupole moment (field-independent basis, Debye-Ang):
   XX=           -101.6685   YY=           -105.2428   ZZ=           -108.4886
   XY=              2.3676   XZ=             -2.1296   YZ=             -0.6136

 1\1\GINC-DAMODAR\FOpt\RB3LYP\6-311+G(d,p)\C12H7Cl3\PKC\14-Mar-2022\0\\
 # opt b3lyp/6-311+g(d,p) scf=xqc\\Title Card Required\\0,1\C,-0.958736
 849,-0.9175865571,-0.1979470096\C,0.3749773322,-0.779888441,0.20345484
 34\C,1.0350044432,0.4454073991,0.1592491558\C,0.3429387132,1.560370644
 7,-0.2970898062\C,-0.9841326964,1.469869666,-0.701890904\C,-1.61759292
 92,0.232982139,-0.6463511616\C,-1.6892371936,-2.2169548916,-0.13735911
 47\C,-1.6105556908,-3.1730113534,-1.1567087046\C,-2.317736957,-4.37044
 06596,-1.0902704873\C,-3.1252529409,-4.6305665643,0.0128717161\C,-3.22

 Normal termination of Gaussian 16 at Mon Mar 14 22:53:08 2022.
