 Gaussian 16, Revision B.01,
 Gaussian 16:  EM64L-G16RevB.01 20-Dec-2017

 --------------------------------
 # opt b3lyp/6-311+g(d,p) scf=xqc
 --------------------------------

 -------------------
 Title Card Required
 -------------------
 Symbolic Z-matrix:
 Charge =  0 Multiplicity = 1

 SCF Done:  E(RB3LYP) =  -3680.19225969     A.U. after   28 cycles
 SCF Done:  E(RB3LYP) =  -3680.11283802     A.U. after   28 cycles
 SCF Done:  E(RB3LYP) =  -3680.35512286     A.U. after   21 cycles
 SCF Done:  E(RB3LYP) =  -3680.43314381     A.U. after   19 cycles
 SCF Done:  E(RB3LYP) =  -3680.56766289     A.U. after   16 cycles
 SCF Done:  E(RB3LYP) =  -3680.61847955     A.U. after   16 cycles
 SCF Done:  E(RB3LYP) =  -3680.64820722     A.U. after   14 cycles
 SCF Done:  E(RB3LYP) =  -3680.59711704     A.U. after   17 cycles
 SCF Done:  E(RB3LYP) =  -3680.67012814     A.U. after   14 cycles
 SCF Done:  E(RB3LYP) =  -3680.64482352     A.U. after   18 cycles
 SCF Done:  E(RB3LYP) =  -3680.74701670     A.U. after   12 cycles
 SCF Done:  E(RB3LYP) =  -3680.74705125     A.U. after   12 cycles
 SCF Done:  E(RB3LYP) =  -3680.74707139     A.U. after   12 cycles
 SCF Done:  E(RB3LYP) =  -3680.74708750     A.U. after   12 cycles
 SCF Done:  E(RB3LYP) =  -3680.74709849     A.U. after   12 cycles
 SCF Done:  E(RB3LYP) =  -3680.74711130     A.U. after   11 cycles
 SCF Done:  E(RB3LYP) =  -3680.74711393     A.U. after   12 cycles
 SCF Done:  E(RB3LYP) =  -3680.74711414     A.U. after   11 cycles
 SCF Done:  E(RB3LYP) =  -3680.74711416     A.U. after   11 cycles
 SCF Done:  E(RB3LYP) =  -3680.74711413     A.U. after    9 cycles
 Optimization completed.
    -- Stationary point found.

                         Standard orientation:
 ---------------------------------------------------------------------
 Center     Atomic      Atomic             Coordinates (Angstroms)
 Number     Number       Type             X           Y           Z
 ---------------------------------------------------------------------
      1          6           0        1.172762    0.294243    0.060996
      2          6           0        1.801614    1.159896    0.957315
      3          6           0        3.188703    1.224515    1.001531
      4          6           0        3.970793    0.441854    0.163624
      5          6           0        3.347251   -0.419773   -0.734834
      6          6           0        1.950810   -0.499253   -0.794748
      7          6           0       -0.320350    0.260034    0.017533
      8          6           0       -0.996698    1.205464   -0.748805
      9          6           0       -2.384466    1.223257   -0.804617
     10          6           0       -3.133781    0.286195   -0.085334
     11          6           0       -2.463806   -0.670180    0.696219
     12          6           0       -1.062750   -0.678030    0.744352
     13          1           0        1.205572    1.772092    1.621046
     14          1           0        5.049955    0.494687    0.200599
     15          1           0       -0.435539    1.934754   -1.317797
     16         17           0       -0.225007   -1.857264    1.716375
     17         17           0        1.170227   -1.572799   -1.924578
     18         17           0       -3.374159   -1.837554    1.602914
     19         17           0        4.355016   -1.386524   -1.780016
     20         17           0       -4.867228    0.307406   -0.154446
     21         17           0       -3.158435    2.436292   -1.789737
     22         17           0        3.967793    2.312157    2.132828
 ---------------------------------------------------------------------

 The electronic state is 1-A.
 Alpha  occ. eigenvalues -- -101.58242-101.58203-101.58080-101.58043-101.57926
 Alpha  occ. eigenvalues -- -101.57869-101.57761 -10.28497 -10.28414 -10.28019
 Alpha  occ. eigenvalues --  -10.27813 -10.27784 -10.27601 -10.27143 -10.24084
 Alpha  occ. eigenvalues --  -10.24049 -10.22531 -10.22453 -10.22170  -9.49705
 Alpha  occ. eigenvalues --   -9.49670  -9.49536  -9.49518  -9.49385  -9.49339
 Alpha  occ. eigenvalues --   -9.49213  -7.26210  -7.26175  -7.26028  -7.26008
 Alpha  occ. eigenvalues --   -7.25874  -7.25825  -7.25688  -7.25186  -7.25151
 Alpha  occ. eigenvalues --   -7.25099  -7.25063  -7.25013  -7.24997  -7.24953
 Alpha  occ. eigenvalues --   -7.24926  -7.24863  -7.24819  -7.24802  -7.24753
 Alpha  occ. eigenvalues --   -7.24690  -7.24653  -0.96639  -0.95037  -0.91941
 Alpha  occ. eigenvalues --   -0.90810  -0.90240  -0.88435  -0.87099  -0.85915
 Alpha  occ. eigenvalues --   -0.84411  -0.79973  -0.76420  -0.75378  -0.74687
 Alpha  occ. eigenvalues --   -0.67696  -0.64375  -0.63355  -0.61754  -0.55365
 Alpha  occ. eigenvalues --   -0.54981  -0.53870  -0.53504  -0.50273  -0.48623
 Alpha  occ. eigenvalues --   -0.47330  -0.47242  -0.46866  -0.46415  -0.45230
 Alpha  occ. eigenvalues --   -0.44296  -0.42682  -0.41971  -0.41350  -0.40554
 Alpha  occ. eigenvalues --   -0.39683  -0.38279  -0.37092  -0.35945  -0.35778
 Alpha  occ. eigenvalues --   -0.35507  -0.35161  -0.34166  -0.33975  -0.33861
 Alpha  occ. eigenvalues --   -0.33632  -0.32877  -0.32017  -0.28855  -0.28047
 Alpha  occ. eigenvalues --   -0.27095  -0.26918
 Alpha virt. eigenvalues --   -0.06728  -0.06532  -0.05885  -0.05263  -0.05096
 Alpha virt. eigenvalues --   -0.03151  -0.01036  -0.00422  -0.00061   0.00758
 Alpha virt. eigenvalues --    0.01627   0.01885   0.01927   0.02375   0.02464

 Mulliken charges:
               1
     1  C   -0.501991
     2  C   -0.844026
     3  C    0.747176
     4  C   -1.089898
     5  C    0.707562
     6  C   -1.033740
     7  C   -0.202657
     8  C   -0.803686
     9  C   -0.341844
    10  C   -0.193569
    11  C   -0.177906
    12  C   -0.614647
    13  H    0.147677
    14  H    0.174400
    15  H    0.152200
    16  Cl   0.589928
    17  Cl   0.608010
    18  Cl   0.599504
    19  Cl   0.457638
    20  Cl   0.631804
    21  Cl   0.560668
    22  Cl   0.427396
 Sum of Mulliken charges =  -0.00000

 Dipole moment (field-independent basis, Debye):
    X=              0.9173    Y=              1.1203    Z=              0.1464  Tot=              1.4553
 Quadrupole moment (field-independent basis, Debye-Ang):
   XX=           -157.7808   YY=           -157.8850   ZZ=           -158.8822
   XY=              1.0016   XZ=              0.0035   YZ=             -0.7616

 Normal termination of Gaussian 16 at Sat Apr  2 21:58:43 2022.
