 Gaussian 16, Revision B.01,
 Gaussian 16:  EM64L-G16RevB.01 20-Dec-2017

 --------------------------------
 # opt b3lyp/6-311+g(d,p) scf=xqc
 --------------------------------

 -------------------
 Title Card Required
 -------------------
 Symbolic Z-matrix:
 Charge =  0 Multiplicity = 1

 SCF Done:  E(RB3LYP) =  -3217.89986936     A.U. after   17 cycles
 SCF Done:  E(RB3LYP) =  -3218.83995054     A.U. after   16 cycles
 SCF Done:  E(RB3LYP) =  -3219.86015724     A.U. after   17 cycles
 SCF Done:  E(RB3LYP) =  -3220.40614584     A.U. after   20 cycles
 SCF Done:  E(RB3LYP) =  -3220.60686175     A.U. after   24 cycles
 SCF Done:  E(RB3LYP) =  -3220.73183489     A.U. after   19 cycles
 SCF Done:  E(RB3LYP) =  -3220.80783262     A.U. after   16 cycles
 SCF Done:  E(RB3LYP) =  -3220.79297633     A.U. after   16 cycles
 SCF Done:  E(RB3LYP) =  -3220.82326191     A.U. after   15 cycles
 SCF Done:  E(RB3LYP) =  -3220.82712814     A.U. after   14 cycles
 SCF Done:  E(RB3LYP) =  -3221.13081852     A.U. after   13 cycles
 SCF Done:  E(RB3LYP) =  -3221.13560638     A.U. after   15 cycles
 SCF Done:  E(RB3LYP) =  -3221.13809297     A.U. after   13 cycles
 SCF Done:  E(RB3LYP) =  -3221.14002836     A.U. after   13 cycles
 SCF Done:  E(RB3LYP) =  -3221.14053996     A.U. after   13 cycles
 SCF Done:  E(RB3LYP) =  -3221.14070299     A.U. after   12 cycles
 SCF Done:  E(RB3LYP) =  -3221.14074701     A.U. after   12 cycles
 SCF Done:  E(RB3LYP) =  -3221.14076201     A.U. after   11 cycles
 SCF Done:  E(RB3LYP) =  -3221.14076479     A.U. after   11 cycles
 SCF Done:  E(RB3LYP) =  -3221.14076544     A.U. after   10 cycles
 Optimization completed.
    -- Stationary point found.

                         Standard orientation:
 ---------------------------------------------------------------------
 Center     Atomic      Atomic             Coordinates (Angstroms)
 Number     Number       Type             X           Y           Z
 ---------------------------------------------------------------------
      1          6           0       -0.744397    0.000002   -0.000215
      2          6           0       -1.480655   -0.843393    0.842594
      3          6           0       -2.870804   -0.857779    0.857060
      4          6           0       -3.549224   -0.000281    0.000313
      5          6           0       -2.871277    0.857346   -0.856666
      6          6           0       -1.481106    0.843252   -0.842728
      7          6           0        0.744397    0.000123   -0.000248
      8          6           0        1.480769    0.843435    0.842522
      9          6           0        2.870925    0.857636    0.856952
     10          6           0        3.549224    0.000044    0.000209
     11          6           0        2.871155   -0.857461   -0.856801
     12          6           0        1.480992   -0.843184   -0.842826
     13          1           0       -3.406495   -1.521654    1.520448
     14          1           0       -3.407345    1.521119   -1.519852
     15          1           0        3.406718    1.521453    1.520316
     16          1           0        3.407121   -1.521272   -1.520031
     17         17           0        0.641507   -1.930362   -1.929487
     18         17           0       -0.641829    1.930671   -1.929318
     19         17           0        5.300842   -0.000018    0.000512
     20         17           0       -5.300842   -0.000426    0.000647
     21         17           0        0.640975    1.930844    1.928714
     22         17           0       -0.640652   -1.930596    1.928822
 ---------------------------------------------------------------------

 The electronic state is 1-A.
 Alpha  occ. eigenvalues -- -101.57606-101.57606-101.57554-101.57554-101.57554
 Alpha  occ. eigenvalues -- -101.57554 -10.27412 -10.27412 -10.27412 -10.27412
 Alpha  occ. eigenvalues --  -10.27178 -10.27178 -10.23640 -10.23610 -10.21818
 Alpha  occ. eigenvalues --  -10.21818 -10.21818 -10.21817  -9.49059  -9.49059
 Alpha  occ. eigenvalues --   -9.49026  -9.49026  -9.49025  -9.49025  -7.25534
 Alpha  occ. eigenvalues --   -7.25534  -7.25500  -7.25500  -7.25500  -7.25500
 Alpha  occ. eigenvalues --   -7.24537  -7.24537  -7.24504  -7.24504  -7.24504
 Alpha  occ. eigenvalues --   -7.24504  -7.24496  -7.24496  -7.24455  -7.24455
 Alpha  occ. eigenvalues --   -7.24455  -7.24455  -0.95454  -0.93675  -0.90335
 Alpha  occ. eigenvalues --   -0.89894  -0.89892  -0.89387  -0.83673  -0.83460
 Alpha  occ. eigenvalues --   -0.80230  -0.76714  -0.76714  -0.74364  -0.65059
 Alpha  occ. eigenvalues --   -0.63878  -0.63876  -0.61837  -0.56549  -0.53612
 Alpha  occ. eigenvalues --   -0.53609  -0.52358  -0.49364  -0.48624  -0.46755
 Alpha  occ. eigenvalues --   -0.46697  -0.46697  -0.44640  -0.44639  -0.43305
 Alpha  occ. eigenvalues --   -0.41348  -0.41347  -0.40723  -0.39510  -0.38441
 Alpha  occ. eigenvalues --   -0.38440  -0.37746  -0.34370  -0.34334  -0.34333
 Alpha  occ. eigenvalues --   -0.34268  -0.33219  -0.33218  -0.32715  -0.32713
 Alpha  occ. eigenvalues --   -0.27662  -0.27531  -0.27527  -0.27509
 Alpha virt. eigenvalues --   -0.05945  -0.05646  -0.05641  -0.05138  -0.03717
 Alpha virt. eigenvalues --   -0.02710  -0.00556   0.00602   0.01203   0.01204
 Alpha virt. eigenvalues --    0.01295   0.01343   0.02102   0.02102   0.03926

 Mulliken charges:
               1
     1  C    0.016069
     2  C   -0.742708
     3  C   -0.400736
     4  C    0.734151
     5  C   -0.401202
     6  C   -0.742582
     7  C    0.016069
     8  C   -0.742647
     9  C   -0.400879
    10  C    0.734151
    11  C   -0.401060
    12  C   -0.742642
    13  H    0.168866
    14  H    0.168868
    15  H    0.168867
    16  H    0.168867
    17  Cl   0.382454
    18  Cl   0.382485
    19  Cl   0.434368
    20  Cl   0.434368
    21  Cl   0.382452
    22  Cl   0.382422
 Sum of Mulliken charges =  -0.00000

 Dipole moment (field-independent basis, Debye):
    X=             -0.0000    Y=             -0.0001    Z=              0.0003  Tot=              0.0003
 Quadrupole moment (field-independent basis, Debye-Ang):
   XX=           -142.9462   YY=           -144.8055   ZZ=           -144.8110
   XY=             -0.0003   XZ=              0.0000   YZ=              0.0000

 Normal termination of Gaussian 16 at Thu Mar 17 16:38:35 2022.
