 Gaussian 16, Revision B.01,
 Gaussian 16:  EM64L-G16RevB.01 20-Dec-2017

 --------------------------------
 # opt b3lyp/6-311+g(d,p) scf=xqc
 --------------------------------

 -------------------
 Title Card Required
 -------------------
 Symbolic Z-matrix:
 Charge =  0 Multiplicity = 1

 SCF Done:  E(RB3LYP) =  -2301.29969530     A.U. after   26 cycles
 SCF Done:  E(RB3LYP) =  -2300.23445326     A.U. after   33 cycles
 SCF Done:  E(RB3LYP) =  -2300.23445326     a.u. after    1 cycles
 SCF Done:  E(RB3LYP) =  -2301.36570106     A.U. after   20 cycles
 SCF Done:  E(RB3LYP) =  -2301.39275690     A.U. after   19 cycles
 SCF Done:  E(RB3LYP) =  -2301.40769268     A.U. after   18 cycles
 SCF Done:  E(RB3LYP) =  -2301.45147404     A.U. after   18 cycles
 SCF Done:  E(RB3LYP) =  -2301.50230117     A.U. after   21 cycles
 SCF Done:  E(RB3LYP) =  -2301.55658238     A.U. after   18 cycles
 SCF Done:  E(RB3LYP) =  -2301.59480028     A.U. after   17 cycles
 SCF Done:  E(RB3LYP) =  -2301.90184147     A.U. after   13 cycles
 SCF Done:  E(RB3LYP) =  -2301.90195999     A.U. after   13 cycles
 SCF Done:  E(RB3LYP) =  -2301.90203684     A.U. after   13 cycles
 SCF Done:  E(RB3LYP) =  -2301.90211829     A.U. after   12 cycles
 SCF Done:  E(RB3LYP) =  -2301.90215420     A.U. after   12 cycles
 SCF Done:  E(RB3LYP) =  -2301.90217473     A.U. after   12 cycles
 SCF Done:  E(RB3LYP) =  -2301.90218009     A.U. after   11 cycles
 SCF Done:  E(RB3LYP) =  -2301.90218470     A.U. after   11 cycles
 SCF Done:  E(RB3LYP) =  -2301.90218684     A.U. after   11 cycles
 SCF Done:  E(RB3LYP) =  -2301.90218735     A.U. after   10 cycles
 Optimization completed.
    -- Stationary point found.

                         Standard orientation:
 ---------------------------------------------------------------------
 Center     Atomic      Atomic             Coordinates (Angstroms)
 Number     Number       Type             X           Y           Z
 ---------------------------------------------------------------------
      1          6           0       -1.041957   -0.003263    0.289911
      2          6           0       -1.745360    1.188080    0.519404
      3          6           0       -3.073983    1.198734    0.930767
      4          6           0       -3.734279   -0.009834    1.123907
      5          6           0       -3.074678   -1.215078    0.909735
      6          6           0       -1.745880   -1.198045    0.498701
      7          6           0        0.388065    0.000637   -0.134024
      8          6           0        1.393054   -0.008895    0.838256
      9          6           0        2.730295   -0.004594    0.463968
     10          6           0        3.100128    0.009194   -0.876660
     11          6           0        2.108523    0.018788   -1.851324
     12          6           0        0.767248    0.014533   -1.480007
     13          1           0       -3.577049    2.142454    1.094395
     14          1           0       -4.769621   -0.012333    1.443493
     15          1           0       -3.578166   -2.161291    1.056902
     16          1           0        1.122779   -0.019761    1.886174
     17          1           0        4.145377    0.012323   -1.157136
     18          1           0        2.374824    0.029453   -2.900283
     19         17           0       -0.452287    0.026696   -2.741030
     20         17           0       -0.941181   -2.736091    0.234702
     21         17           0        3.972314   -0.016857    1.705725
     22         17           0       -0.940328    2.730230    0.281817
 ---------------------------------------------------------------------

 The electronic state is 1-A.
 Alpha  occ. eigenvalues -- -101.56645-101.56643-101.56404-101.56373 -10.26222
 Alpha  occ. eigenvalues --  -10.26219 -10.25612 -10.25438 -10.22722 -10.22348
 Alpha  occ. eigenvalues --  -10.20832 -10.20802 -10.20768 -10.20712 -10.20569
 Alpha  occ. eigenvalues --  -10.20562  -9.48115  -9.48113  -9.47859  -9.47843
 Alpha  occ. eigenvalues --   -7.24582  -7.24580  -7.24324  -7.24308  -7.23600
 Alpha  occ. eigenvalues --   -7.23598  -7.23549  -7.23547  -7.23339  -7.23324
 Alpha  occ. eigenvalues --   -7.23307  -7.23284  -0.93552  -0.91532  -0.88823
 Alpha  occ. eigenvalues --   -0.88759  -0.84282  -0.83741  -0.80842  -0.76121
 Alpha  occ. eigenvalues --   -0.75217  -0.73492  -0.66372  -0.63390  -0.62321
 Alpha  occ. eigenvalues --   -0.60635  -0.54707  -0.52504  -0.51318  -0.51234
 Alpha  occ. eigenvalues --   -0.49045  -0.47395  -0.45731  -0.45416  -0.45145
 Alpha  occ. eigenvalues --   -0.42708  -0.42480  -0.41403  -0.39489  -0.39370
 Alpha  occ. eigenvalues --   -0.38769  -0.38219  -0.37230  -0.33744  -0.33355
 Alpha  occ. eigenvalues --   -0.33044  -0.32936  -0.32537  -0.32430  -0.28446
 Alpha  occ. eigenvalues --   -0.27766  -0.26521  -0.25623
 Alpha virt. eigenvalues --   -0.04923  -0.04659  -0.04445  -0.03725  -0.01871
 Alpha virt. eigenvalues --   -0.00462   0.00090   0.00921   0.01268   0.01781
 Alpha virt. eigenvalues --    0.02240   0.02258   0.03462   0.04210   0.04685

 Mulliken charges:
               1
     1  C    0.194140
     2  C   -0.269602
     3  C   -0.049237
     4  C   -0.316784
     5  C   -0.050519
     6  C   -0.269925
     7  C   -0.414725
     8  C   -0.564918
     9  C    0.652391
    10  C   -0.598483
    11  C   -0.203246
    12  C   -0.640550
    13  H    0.150415
    14  H    0.142071
    15  H    0.150388
    16  H    0.144405
    17  H    0.154609
    18  H    0.152785
    19  Cl   0.384231
    20  Cl   0.419037
    21  Cl   0.415234
    22  Cl   0.418283
 Sum of Mulliken charges =  -0.00000

 Dipole moment (field-independent basis, Debye):
    X=             -1.5454    Y=             -0.0013    Z=              0.2991  Tot=              1.5741
 Quadrupole moment (field-independent basis, Debye-Ang):
   XX=           -106.7257   YY=           -123.4753   ZZ=           -119.4619
   XY=              0.0986   XZ=            -10.4285   YZ=             -0.0416

 Normal termination of Gaussian 16 at Sun Apr  3 06:15:19 2022.
