 Gaussian 16, Revision B.01,
 Gaussian 16:  EM64L-G16RevB.01 20-Dec-2017

 --------------------------------
 # opt b3lyp/6-311+g(d,p) scf=xqc
 --------------------------------

 -------------------
 Title Card Required
 -------------------
 Symbolic Z-matrix:
 Charge =  0 Multiplicity = 1

 SCF Done:  E(RB3LYP) =  -3677.51779554     A.U. after   22 cycles
 SCF Done:  E(RB3LYP) =  -3678.45014542     A.U. after   18 cycles
 SCF Done:  E(RB3LYP) =  -3679.47292926     A.U. after   20 cycles
 SCF Done:  E(RB3LYP) =  -3680.03470644     A.U. after   28 cycles
 SCF Done:  E(RB3LYP) =  -3680.19186395     A.U. after   33 cycles
 SCF Done:  E(RB3LYP) =  -3680.19186400     a.u. after    2 cycles
 SCF Done:  E(RB3LYP) =  -3680.24054179     A.U. after   30 cycles
 SCF Done:  E(RB3LYP) =  -3680.32654040     A.U. after   24 cycles
 SCF Done:  E(RB3LYP) =  -3680.40552748     A.U. after   20 cycles
 SCF Done:  E(RB3LYP) =  -3680.46110080     A.U. after   16 cycles
 SCF Done:  E(RB3LYP) =  -3680.74807492     A.U. after   11 cycles
 SCF Done:  E(RB3LYP) =  -3680.74807767     A.U. after   11 cycles
 SCF Done:  E(RB3LYP) =  -3680.74808325     A.U. after   12 cycles
 SCF Done:  E(RB3LYP) =  -3680.74809209     A.U. after   12 cycles
 SCF Done:  E(RB3LYP) =  -3680.74810493     A.U. after   11 cycles
 SCF Done:  E(RB3LYP) =  -3680.74811808     A.U. after   12 cycles
 SCF Done:  E(RB3LYP) =  -3680.74815050     A.U. after   13 cycles
 SCF Done:  E(RB3LYP) =  -3680.74820435     A.U. after   14 cycles
 SCF Done:  E(RB3LYP) =  -3680.74821032     A.U. after   11 cycles
 SCF Done:  E(RB3LYP) =  -3680.74821056     A.U. after   11 cycles
 Optimization completed.
    -- Stationary point found.

                         Standard orientation:
 ---------------------------------------------------------------------
 Center     Atomic      Atomic             Coordinates (Angstroms)
 Number     Number       Type             X           Y           Z
 ---------------------------------------------------------------------
      1          6           0        0.982682   -0.000277    0.436921
      2          6           0        1.434044   -0.000965    1.760442
      3          6           0        2.789724   -0.001211    2.067840
      4          6           0        3.722842   -0.000751    1.041461
      5          6           0        3.307027    0.000010   -0.286904
      6          6           0        1.941927    0.000254   -0.589100
      7          6           0       -0.475877   -0.000071    0.120121
      8          6           0       -1.170486   -1.208965   -0.027220
      9          6           0       -2.538165   -1.204100   -0.316931
     10          6           0       -3.214772    0.000317   -0.459526
     11          6           0       -2.537950    1.204546   -0.316191
     12          6           0       -1.170317    1.209025   -0.026360
     13          1           0        3.109628   -0.001782    3.101223
     14          1           0        4.781689   -0.000947    1.265141
     15          1           0       -4.272482    0.000506   -0.683289
     16         17           0       -0.313135    2.713828    0.154758
     17         17           0        1.406690    0.001142   -2.247622
     18         17           0       -3.436488    2.686207   -0.505253
     19         17           0        4.517776    0.000679   -1.543288
     20         17           0       -3.436875   -2.685525   -0.506889
     21         17           0       -0.313462   -2.713986    0.152651
     22         17           0        0.278853   -0.001441    3.077385
 ---------------------------------------------------------------------

 The electronic state is 1-A.
 Alpha  occ. eigenvalues -- -101.57900-101.57900-101.57886-101.57886-101.57736
 Alpha  occ. eigenvalues -- -101.57541-101.57532 -10.27843 -10.27842 -10.27719
 Alpha  occ. eigenvalues --  -10.27620 -10.27620 -10.27073 -10.27065 -10.24549
 Alpha  occ. eigenvalues --  -10.24119 -10.22677 -10.22083 -10.21750  -9.49362
 Alpha  occ. eigenvalues --   -9.49361  -9.49357  -9.49357  -9.49213  -9.49005
 Alpha  occ. eigenvalues --   -9.48999  -7.25851  -7.25851  -7.25849  -7.25849
 Alpha  occ. eigenvalues --   -7.25699  -7.25486  -7.25476  -7.24839  -7.24839
 Alpha  occ. eigenvalues --   -7.24832  -7.24832  -7.24775  -7.24775  -7.24772
 Alpha  occ. eigenvalues --   -7.24772  -7.24693  -7.24625  -7.24482  -7.24477
 Alpha  occ. eigenvalues --   -7.24439  -7.24420  -0.96450  -0.94523  -0.92141
 Alpha  occ. eigenvalues --   -0.90811  -0.89331  -0.87989  -0.87825  -0.84554
 Alpha  occ. eigenvalues --   -0.84257  -0.80508  -0.76251  -0.74621  -0.74315
 Alpha  occ. eigenvalues --   -0.68274  -0.63584  -0.62522  -0.62236  -0.55092
 Alpha  occ. eigenvalues --   -0.54981  -0.53601  -0.53257  -0.50203  -0.48343
 Alpha  occ. eigenvalues --   -0.47093  -0.47067  -0.46576  -0.45864  -0.45022
 Alpha  occ. eigenvalues --   -0.43747  -0.42502  -0.41571  -0.41300  -0.41078
 Alpha  occ. eigenvalues --   -0.39337  -0.37718  -0.36970  -0.35946  -0.35751
 Alpha  occ. eigenvalues --   -0.34992  -0.34695  -0.33850  -0.33592  -0.33338
 Alpha  occ. eigenvalues --   -0.33140  -0.32862  -0.32585  -0.28508  -0.28268
 Alpha  occ. eigenvalues --   -0.26661  -0.26464
 Alpha virt. eigenvalues --   -0.06435  -0.05994  -0.05866  -0.05139  -0.04516
 Alpha virt. eigenvalues --   -0.02720  -0.00830  -0.00450  -0.00047   0.00665
 Alpha virt. eigenvalues --    0.01246   0.02171   0.02504   0.02667   0.03137

 Mulliken charges:
               1
     1  C   -0.569429
     2  C   -0.174125
     3  C   -0.339494
     4  C   -0.460188
     5  C    1.342157
     6  C   -1.676324
     7  C   -0.614662
     8  C   -1.364372
     9  C    0.816662
    10  C   -0.431498
    11  C    0.816936
    12  C   -1.364568
    13  H    0.155980
    14  H    0.160432
    15  H    0.175226
    16  Cl   0.530254
    17  Cl   0.534079
    18  Cl   0.513536
    19  Cl   0.489580
    20  Cl   0.513528
    21  Cl   0.530261
    22  Cl   0.416029
 Sum of Mulliken charges =  -0.00000

 Dipole moment (field-independent basis, Debye):
    X=              0.7056    Y=             -0.0008    Z=              1.1789  Tot=              1.3739
 Quadrupole moment (field-independent basis, Debye-Ang):
   XX=           -145.5627   YY=           -161.1113   ZZ=           -155.9675
   XY=             -0.0051   XZ=              8.2924   YZ=             -0.0028

 Normal termination of Gaussian 16 at Sat Mar 26 14:03:44 2022.
