 Gaussian 16, Revision B.01,
 Gaussian 16:  EM64L-G16RevB.01 20-Dec-2017

 --------------------------------
 # opt b3lyp/6-311+g(d,p) scf=xqc
 --------------------------------

 -------------------
 Title Card Required
 -------------------
 Symbolic Z-matrix:
 Charge =  0 Multiplicity = 1

 SCF Done:  E(RB3LYP) =  -3219.51550692     A.U. after   19 cycles
 SCF Done:  E(RB3LYP) =  -3220.02395503     A.U. after   15 cycles
 SCF Done:  E(RB3LYP) =  -3220.55735606     A.U. after   16 cycles
 SCF Done:  E(RB3LYP) =  -3220.82585359     A.U. after   17 cycles
 SCF Done:  E(RB3LYP) =  -3220.49281718     A.U. after   33 cycles
 SCF Done:  E(RB3LYP) =  -3220.84118282     a.u. after   11 cycles
 SCF Done:  E(RB3LYP) =  -3220.87229559     A.U. after   18 cycles
 SCF Done:  E(RB3LYP) =  -3220.89340236     A.U. after   19 cycles
 SCF Done:  E(RB3LYP) =  -3220.90814518     A.U. after   18 cycles
 SCF Done:  E(RB3LYP) =  -3220.93801639     A.U. after   22 cycles
 SCF Done:  E(RB3LYP) =  -3221.13646110     A.U. after   14 cycles
 SCF Done:  E(RB3LYP) =  -3221.13675045     A.U. after   14 cycles
 SCF Done:  E(RB3LYP) =  -3221.13690396     A.U. after   14 cycles
 SCF Done:  E(RB3LYP) =  -3221.13701441     A.U. after   14 cycles
 SCF Done:  E(RB3LYP) =  -3221.13706748     A.U. after   14 cycles
 SCF Done:  E(RB3LYP) =  -3221.13710010     A.U. after   14 cycles
 SCF Done:  E(RB3LYP) =  -3221.13710605     A.U. after   13 cycles
 SCF Done:  E(RB3LYP) =  -3221.13710681     A.U. after   12 cycles
 SCF Done:  E(RB3LYP) =  -3221.13710702     A.U. after   11 cycles
 SCF Done:  E(RB3LYP) =  -3221.13710728     A.U. after   12 cycles
 Optimization completed.
    -- Stationary point found.

                         Standard orientation:
 ---------------------------------------------------------------------
 Center     Atomic      Atomic             Coordinates (Angstroms)
 Number     Number       Type             X           Y           Z
 ---------------------------------------------------------------------
      1          6           0       -0.741287    0.054053    0.081195
      2          6           0       -1.511466   -0.870081   -0.627245
      3          6           0       -2.896555   -0.918929   -0.497636
      4          6           0       -3.538930   -0.025125    0.363549
      5          6           0       -2.788694    0.900599    1.083356
      6          6           0       -1.407071    0.935598    0.940872
      7          6           0        0.741257    0.054053   -0.081378
      8          6           0        1.511352   -0.870288    0.626908
      9          6           0        2.896445   -0.919122    0.497429
     10          6           0        3.538926   -0.025100   -0.363457
     11          6           0        2.788782    0.900799   -1.083111
     12          6           0        1.407130    0.935787   -0.940771
     13          1           0       -1.023791   -1.561917   -1.302026
     14          1           0       -3.284907    1.588553    1.753782
     15          1           0        1.023595   -1.562283    1.301465
     16          1           0        3.285057    1.588923   -1.753314
     17         17           0        0.507413    2.109721   -1.879408
     18         17           0       -0.507185    2.109316    1.879626
     19         17           0        5.270002   -0.036692   -0.568961
     20         17           0       -5.269977   -0.036763    0.569287
     21         17           0        3.787216   -2.101451    1.419993
     22         17           0       -3.787428   -2.100997   -1.420428
 ---------------------------------------------------------------------

 The electronic state is 1-A.
 Alpha  occ. eigenvalues -- -101.57831-101.57831-101.57711-101.57711-101.57587
 Alpha  occ. eigenvalues -- -101.57587 -10.27556 -10.27556 -10.27223 -10.27222
 Alpha  occ. eigenvalues --  -10.27158 -10.27158 -10.23485 -10.23456 -10.22333
 Alpha  occ. eigenvalues --  -10.22333 -10.22317 -10.22317  -9.49286  -9.49286
 Alpha  occ. eigenvalues --   -9.49166  -9.49166  -9.49055  -9.49055  -7.25775
 Alpha  occ. eigenvalues --   -7.25774  -7.25653  -7.25653  -7.25528  -7.25528
 Alpha  occ. eigenvalues --   -7.24766  -7.24766  -7.24706  -7.24706  -7.24643
 Alpha  occ. eigenvalues --   -7.24643  -7.24588  -7.24588  -7.24533  -7.24533
 Alpha  occ. eigenvalues --   -7.24488  -7.24488  -0.95314  -0.94457  -0.91385
 Alpha  occ. eigenvalues --   -0.90238  -0.88390  -0.88194  -0.85536  -0.84230
 Alpha  occ. eigenvalues --   -0.80323  -0.77148  -0.75632  -0.73662  -0.66823
 Alpha  occ. eigenvalues --   -0.65535  -0.64073  -0.60544  -0.55350  -0.53904
 Alpha  occ. eigenvalues --   -0.53422  -0.52552  -0.50019  -0.48859  -0.46955
 Alpha  occ. eigenvalues --   -0.46711  -0.46687  -0.45000  -0.44916  -0.43746
 Alpha  occ. eigenvalues --   -0.41728  -0.41568  -0.40759  -0.39676  -0.39152
 Alpha  occ. eigenvalues --   -0.36975  -0.36941  -0.35146  -0.35011  -0.33975
 Alpha  occ. eigenvalues --   -0.33800  -0.33684  -0.33403  -0.33017  -0.32894
 Alpha  occ. eigenvalues --   -0.28856  -0.28617  -0.26861  -0.26586
 Alpha virt. eigenvalues --   -0.06568  -0.06200  -0.05178  -0.05011  -0.03360
 Alpha virt. eigenvalues --   -0.02746  -0.00789  -0.00325   0.00100   0.00950
 Alpha virt. eigenvalues --    0.01466   0.02168   0.02291   0.02346   0.03309

 Mulliken charges:
               1
     1  C    0.347488
     2  C   -0.941309
     3  C    0.220925
     4  C    0.135068
     5  C   -0.605438
     6  C   -0.884339
     7  C    0.347359
     8  C   -0.941612
     9  C    0.220934
    10  C    0.135125
    11  C   -0.605718
    12  C   -0.883638
    13  H    0.151706
    14  H    0.174113
    15  H    0.151707
    16  H    0.174113
    17  Cl   0.377824
    18  Cl   0.377848
    19  Cl   0.499343
    20  Cl   0.499341
    21  Cl   0.524583
    22  Cl   0.524576
 Sum of Mulliken charges =  -0.00000

 Dipole moment (field-independent basis, Debye):
    X=             -0.0000    Y=              0.0388    Z=             -0.0000  Tot=              0.0388
 Quadrupole moment (field-independent basis, Debye-Ang):
   XX=           -152.2202   YY=           -144.9184   ZZ=           -144.3827
   XY=              0.0008   XZ=             -4.3026   YZ=              0.0002

 Normal termination of Gaussian 16 at Thu Mar 17 18:10:12 2022.
