 Gaussian 16, Revision B.01,
 Gaussian 16:  EM64L-G16RevB.01 20-Dec-2017

 --------------------------------
 # opt b3lyp/6-311+g(d,p) scf=xqc
 --------------------------------

 -------------------
 Title Card Required
 -------------------
 Symbolic Z-matrix:
 Charge =  0 Multiplicity = 1

 SCF Done:  E(RB3LYP) =  -2759.89275582     A.U. after   19 cycles
 SCF Done:  E(RB3LYP) =  -2760.40237762     A.U. after   16 cycles
 SCF Done:  E(RB3LYP) =  -2760.93738272     A.U. after   18 cycles
 SCF Done:  E(RB3LYP) =  -2761.20836159     A.U. after   20 cycles
 SCF Done:  E(RB3LYP) =  -2761.22419588     A.U. after   19 cycles
 SCF Done:  E(RB3LYP) =  -2761.25114185     A.U. after   19 cycles
 SCF Done:  E(RB3LYP) =  -2761.26101079     A.U. after   19 cycles
 SCF Done:  E(RB3LYP) =  -2761.26978772     A.U. after   18 cycles
 SCF Done:  E(RB3LYP) =  -2761.28045924     A.U. after   19 cycles
 SCF Done:  E(RB3LYP) =  -2761.29490471     A.U. after   18 cycles
 SCF Done:  E(RB3LYP) =  -2761.50923748     A.U. after   15 cycles
 SCF Done:  E(RB3LYP) =  -2761.50982187     A.U. after   14 cycles
 SCF Done:  E(RB3LYP) =  -2761.51034790     A.U. after   14 cycles
 SCF Done:  E(RB3LYP) =  -2761.51054735     A.U. after   14 cycles
 SCF Done:  E(RB3LYP) =  -2761.51062468     A.U. after   14 cycles
 SCF Done:  E(RB3LYP) =  -2761.51066619     A.U. after   14 cycles
 SCF Done:  E(RB3LYP) =  -2761.51068162     A.U. after   13 cycles
 SCF Done:  E(RB3LYP) =  -2761.51069187     A.U. after   13 cycles
 SCF Done:  E(RB3LYP) =  -2761.51069270     A.U. after   12 cycles
 SCF Done:  E(RB3LYP) =  -2761.51069282     A.U. after   11 cycles
 Optimization completed.
    -- Stationary point found.

                         Standard orientation:
 ---------------------------------------------------------------------
 Center     Atomic      Atomic             Coordinates (Angstroms)
 Number     Number       Type             X           Y           Z
 ---------------------------------------------------------------------
      1          6           0       -1.958138    0.358374    0.418590
      2          6           0       -2.532345    0.559280    1.679429
      3          6           0       -3.910903    0.664689    1.835984
      4          6           0       -4.742588    0.572607    0.722356
      5          6           0       -4.195581    0.378722   -0.542574
      6          6           0       -2.814772    0.273696   -0.684802
      7          6           0       -0.473524    0.275406    0.285149
      8          6           0        0.266821    1.453190    0.215400
      9          6           0        1.651258    1.428135    0.107723
     10          6           0        2.336175    0.209514    0.068945
     11          6           0        1.603966   -0.987120    0.142743
     12          6           0        0.206761   -0.948105    0.251185
     13          1           0       -1.880731    0.625039    2.543228
     14          1           0       -4.331961    0.816732    2.822667
     15          1           0       -5.817757    0.652956    0.832484
     16          1           0       -4.829038    0.309808   -1.417595
     17          1           0       -0.244317    2.406467    0.236456
     18         17           0       -0.704195   -2.431017    0.353456
     19         17           0       -2.155743    0.039142   -2.297158
     20         17           0        2.435104   -2.512041    0.103461
     21         17           0        4.066777    0.176696   -0.065428
     22         17           0        2.504001    2.948319    0.022257
 ---------------------------------------------------------------------

 The electronic state is 1-A.
 Alpha  occ. eigenvalues -- -101.57683-101.57615-101.57516-101.57287-101.56470
 Alpha  occ. eigenvalues --  -10.27817 -10.27738 -10.27240 -10.27130 -10.25721
 Alpha  occ. eigenvalues --  -10.23125 -10.22095 -10.21733 -10.20453 -10.20392
 Alpha  occ. eigenvalues --  -10.20257 -10.19940  -9.49147  -9.49082  -9.48972
 Alpha  occ. eigenvalues --   -9.48762  -9.47943  -7.25650  -7.25585  -7.25462
 Alpha  occ. eigenvalues --   -7.25251  -7.24628  -7.24564  -7.24543  -7.24477
 Alpha  occ. eigenvalues --   -7.24450  -7.24403  -7.24391  -7.24244  -7.24170
 Alpha  occ. eigenvalues --   -7.23428  -7.23385  -0.95848  -0.91907  -0.90969
 Alpha  occ. eigenvalues --   -0.89080  -0.86487  -0.85642  -0.84663  -0.79809
 Alpha  occ. eigenvalues --   -0.76126  -0.75177  -0.73928  -0.65976  -0.63550
 Alpha  occ. eigenvalues --   -0.63153  -0.60737  -0.54999  -0.54277  -0.52430
 Alpha  occ. eigenvalues --   -0.49927  -0.49272  -0.47811  -0.46589  -0.46021
 Alpha  occ. eigenvalues --   -0.45614  -0.45036  -0.42951  -0.42599  -0.40837
 Alpha  occ. eigenvalues --   -0.39915  -0.38718  -0.38518  -0.37401  -0.35390
 Alpha  occ. eigenvalues --   -0.35329  -0.34953  -0.34745  -0.33305  -0.33165
 Alpha  occ. eigenvalues --   -0.32653  -0.31500  -0.28314  -0.27382  -0.26691
 Alpha  occ. eigenvalues --   -0.26377
 Alpha virt. eigenvalues --   -0.05817  -0.05535  -0.04558  -0.04178  -0.03728
 Alpha virt. eigenvalues --   -0.00895  -0.00136   0.00135   0.01216   0.01866
 Alpha virt. eigenvalues --    0.02226   0.02346   0.02787   0.03447   0.04111

 Mulliken charges:
               1
     1  C    1.073514
     2  C   -0.678253
     3  C   -0.168458
     4  C   -0.135022
     5  C   -0.680488
     6  C   -0.544694
     7  C    0.241174
     8  C   -1.065906
     9  C   -0.704291
    10  C    0.275682
    11  C   -0.013251
    12  C   -1.012817
    13  H    0.129349
    14  H    0.135090
    15  H    0.137030
    16  H    0.150495
    17  H    0.150618
    18  Cl   0.520569
    19  Cl   0.388016
    20  Cl   0.615816
    21  Cl   0.623659
    22  Cl   0.562168
 Sum of Mulliken charges =  -0.00000

 Dipole moment (field-independent basis, Debye):
    X=             -2.8736    Y=              1.1107    Z=              1.5650  Tot=              3.4555
 Quadrupole moment (field-independent basis, Debye-Ang):
   XX=           -121.7889   YY=           -134.6104   ZZ=           -130.1199
   XY=             -3.1383   XZ=             -4.0913   YZ=              1.6311

 Normal termination of Gaussian 16 at Wed Mar 16 05:39:20 2022.
