 Gaussian 16, Revision B.01,
 Gaussian 16:  EM64L-G16RevB.01 20-Dec-2017

 --------------------------------
 # opt b3lyp/6-311+g(d,p) scf=xqc
 --------------------------------

 -------------------
 Title Card Required
 -------------------
 Symbolic Z-matrix:
 Charge =  0 Multiplicity = 1

 SCF Done:  E(RB3LYP) =  -2760.92549007     A.U. after   25 cycles
 SCF Done:  E(RB3LYP) =  -2759.80176556     A.U. after   33 cycles
 SCF Done:  E(RB3LYP) =  -2759.80176556     a.u. after    1 cycles
 SCF Done:  E(RB3LYP) =  -2760.99052412     A.U. after   19 cycles
 SCF Done:  E(RB3LYP) =  -2761.01763994     A.U. after   19 cycles
 SCF Done:  E(RB3LYP) =  -2761.04232477     A.U. after   19 cycles
 SCF Done:  E(RB3LYP) =  -2761.08655963     A.U. after   18 cycles
 SCF Done:  E(RB3LYP) =  -2761.13435841     A.U. after   20 cycles
 SCF Done:  E(RB3LYP) =  -2761.18037680     A.U. after   18 cycles
 SCF Done:  E(RB3LYP) =  -2761.20765359     A.U. after   17 cycles
 SCF Done:  E(RB3LYP) =  -2761.51805665     A.U. after   11 cycles
 SCF Done:  E(RB3LYP) =  -2761.51805806     A.U. after   11 cycles
 SCF Done:  E(RB3LYP) =  -2761.51805970     A.U. after   11 cycles
 SCF Done:  E(RB3LYP) =  -2761.51806140     A.U. after   11 cycles
 SCF Done:  E(RB3LYP) =  -2761.51806354     A.U. after   11 cycles
 SCF Done:  E(RB3LYP) =  -2761.51806604     A.U. after   11 cycles
 SCF Done:  E(RB3LYP) =  -2761.51806873     A.U. after   11 cycles
 SCF Done:  E(RB3LYP) =  -2761.51807100     A.U. after   12 cycles
 SCF Done:  E(RB3LYP) =  -2761.51807269     A.U. after   11 cycles
 SCF Done:  E(RB3LYP) =  -2761.51807325     A.U. after   11 cycles
 Optimization completed.
    -- Stationary point found.

                         Standard orientation:
 ---------------------------------------------------------------------
 Center     Atomic      Atomic             Coordinates (Angstroms)
 Number     Number       Type             X           Y           Z
 ---------------------------------------------------------------------
      1          6           0        0.623905   -0.000628   -0.394645
      2          6           0        1.348975    1.191010   -0.252943
      3          6           0        2.713161    1.211671    0.017525
      4          6           0        3.378879    0.000077    0.151191
      5          6           0        2.713468   -1.211834    0.019906
      6          6           0        1.349213   -1.191683   -0.250737
      7          6           0       -0.834674   -0.001108   -0.708275
      8          6           0       -1.252695   -0.002625   -2.040209
      9          6           0       -2.605425   -0.002797   -2.361561
     10          6           0       -3.560351   -0.001408   -1.351976
     11          6           0       -3.160314    0.000098   -0.018243
     12          6           0       -1.799751    0.000247    0.309149
     13          1           0        3.238454    2.150339    0.121533
     14          1           0        3.238645   -2.150368    0.125617
     15          1           0       -0.504914   -0.003862   -2.824052
     16          1           0       -2.919042   -0.003897   -3.398432
     17          1           0       -4.617465   -0.001452   -1.584406
     18         17           0       -1.287661    0.002093    1.977710
     19         17           0        0.528025   -2.731889   -0.407472
     20         17           0       -4.390884    0.001479    1.222543
     21         17           0        5.097703    0.000710    0.491921
     22         17           0        0.527992    2.731320   -0.411488
 ---------------------------------------------------------------------

 The electronic state is 1-A.
 Alpha  occ. eigenvalues -- -101.57490-101.57332-101.57332-101.56847-101.56768
 Alpha  occ. eigenvalues --  -10.27207 -10.27205 -10.26998 -10.26486 -10.26230
 Alpha  occ. eigenvalues --  -10.23283 -10.22576 -10.21679 -10.21678 -10.20854
 Alpha  occ. eigenvalues --  -10.20546 -10.20424  -9.48943  -9.48803  -9.48802
 Alpha  occ. eigenvalues --   -9.48322  -9.48229  -7.25417  -7.25277  -7.25277
 Alpha  occ. eigenvalues --   -7.24801  -7.24710  -7.24421  -7.24382  -7.24284
 Alpha  occ. eigenvalues --   -7.24284  -7.24230  -7.24230  -7.23805  -7.23740
 Alpha  occ. eigenvalues --   -7.23710  -7.23653  -0.94741  -0.92981  -0.89822
 Alpha  occ. eigenvalues --   -0.89658  -0.87258  -0.85910  -0.83339  -0.79916
 Alpha  occ. eigenvalues --   -0.76529  -0.75128  -0.74684  -0.65701  -0.63642
 Alpha  occ. eigenvalues --   -0.62585  -0.61543  -0.55451  -0.53333  -0.52645
 Alpha  occ. eigenvalues --   -0.51347  -0.49167  -0.47935  -0.46498  -0.46007
 Alpha  occ. eigenvalues --   -0.45611  -0.44303  -0.43426  -0.42472  -0.41063
 Alpha  occ. eigenvalues --   -0.39800  -0.39289  -0.38595  -0.38175  -0.35918
 Alpha  occ. eigenvalues --   -0.35230  -0.34188  -0.34103  -0.33961  -0.32902
 Alpha  occ. eigenvalues --   -0.32650  -0.31944  -0.27624  -0.27445  -0.27335
 Alpha  occ. eigenvalues --   -0.26473
 Alpha virt. eigenvalues --   -0.05608  -0.05362  -0.04790  -0.04078  -0.03255
 Alpha virt. eigenvalues --   -0.01750  -0.00558   0.00726   0.01261   0.01334
 Alpha virt. eigenvalues --    0.02067   0.02167   0.02687   0.03273   0.04142

 Mulliken charges:
               1
     1  C    0.582878
     2  C   -0.662059
     3  C   -0.363912
     4  C    0.665043
     5  C   -0.361369
     6  C   -0.659516
     7  C   -0.063951
     8  C   -0.367266
     9  C   -0.576654
    10  C   -0.420204
    11  C    0.924430
    12  C   -1.690651
    13  H    0.169460
    14  H    0.169426
    15  H    0.131566
    16  H    0.139509
    17  H    0.153742
    18  Cl   0.559661
    19  Cl   0.394226
    20  Cl   0.453254
    21  Cl   0.428338
    22  Cl   0.394049
 Sum of Mulliken charges =  -0.00000

 Dipole moment (field-independent basis, Debye):
    X=              0.1882    Y=             -0.0033    Z=             -2.3812  Tot=              2.3886
 Quadrupole moment (field-independent basis, Debye-Ang):
   XX=           -130.1618   YY=           -133.6378   ZZ=           -127.9743
   XY=              0.0058   XZ=              6.8664   YZ=              0.0074

 Normal termination of Gaussian 16 at Sun Apr  3 13:24:24 2022.
