 Gaussian 16, Revision B.01,
 Gaussian 16:  EM64L-G16RevB.01 20-Dec-2017

 --------------------------------
 # opt b3lyp/6-311+g(d,p) scf=xqc
 --------------------------------

 -------------------
 Title Card Required
 -------------------
 Symbolic Z-matrix:
 Charge =  0 Multiplicity = 1

 SCF Done:  E(RB3LYP) =  -3680.18020592     A.U. after   28 cycles
 SCF Done:  E(RB3LYP) =  -3680.27173021     A.U. after   22 cycles
 SCF Done:  E(RB3LYP) =  -3680.41058835     A.U. after   19 cycles
 SCF Done:  E(RB3LYP) =  -3678.58393648     A.U. after   24 cycles
 SCF Done:  E(RB3LYP) =  -3680.50773369     A.U. after   17 cycles
 SCF Done:  E(RB3LYP) =  -3680.54454661     A.U. after   15 cycles
 SCF Done:  E(RB3LYP) =  -3680.59760159     A.U. after   16 cycles
 SCF Done:  E(RB3LYP) =  -3680.54732046     A.U. after   17 cycles
 SCF Done:  E(RB3LYP) =  -3680.63371391     A.U. after   14 cycles
 SCF Done:  E(RB3LYP) =  -3680.64524190     A.U. after   14 cycles
 SCF Done:  E(RB3LYP) =  -3680.74541833     A.U. after   13 cycles
 SCF Done:  E(RB3LYP) =  -3680.74545726     A.U. after   13 cycles
 SCF Done:  E(RB3LYP) =  -3680.74548801     A.U. after   13 cycles
 SCF Done:  E(RB3LYP) =  -3680.74551213     A.U. after   13 cycles
 SCF Done:  E(RB3LYP) =  -3680.74552110     A.U. after   12 cycles
 SCF Done:  E(RB3LYP) =  -3680.74552387     A.U. after   12 cycles
 SCF Done:  E(RB3LYP) =  -3680.74552587     A.U. after   11 cycles
 SCF Done:  E(RB3LYP) =  -3680.74552666     A.U. after   12 cycles
 SCF Done:  E(RB3LYP) =  -3680.74552706     A.U. after    9 cycles
 SCF Done:  E(RB3LYP) =  -3680.74552720     A.U. after    9 cycles
 Optimization completed.
    -- Stationary point found.

                         Standard orientation:
 ---------------------------------------------------------------------
 Center     Atomic      Atomic             Coordinates (Angstroms)
 Number     Number       Type             X           Y           Z
 ---------------------------------------------------------------------
      1          6           0       -1.378737    0.088967    0.482816
      2          6           0       -1.895897   -0.181440    1.754759
      3          6           0       -3.265077   -0.206956    1.996750
      4          6           0       -4.147687    0.042371    0.956276
      5          6           0       -3.668213    0.316318   -0.321371
      6          6           0       -2.289792    0.340617   -0.557792
      7          6           0        0.093469    0.135574    0.240973
      8          6           0        0.770877    1.339983    0.405532
      9          6           0        2.140640    1.424122    0.196252
     10          6           0        2.869208    0.292336   -0.185867
     11          6           0        2.196709   -0.929387   -0.354536
     12          6           0        0.813589   -1.001335   -0.140314
     13          1           0       -3.634337   -0.420671    2.990848
     14          1           0       -5.215855    0.025796    1.129276
     15          1           0        0.225511    2.226470    0.700519
     16         17           0       -0.030759   -2.511311   -0.347314
     17         17           0       -1.678972    0.678433   -2.155599
     18         17           0        3.080935   -2.346695   -0.827528
     19         17           0       -4.817455    0.626102   -1.597196
     20         17           0        4.581353    0.396900   -0.447380
     21         17           0        2.920152    2.967898    0.421660
     22         17           0       -0.808776   -0.505363    3.090916
 ---------------------------------------------------------------------

 The electronic state is 1-A.
 Alpha  occ. eigenvalues -- -101.57982-101.57933-101.57901-101.57801-101.57793
 Alpha  occ. eigenvalues -- -101.57743-101.57700 -10.28188 -10.28127 -10.27930
 Alpha  occ. eigenvalues --  -10.27715 -10.27497 -10.27298 -10.27276 -10.24219
 Alpha  occ. eigenvalues --  -10.23826 -10.22288 -10.22223 -10.21975  -9.49446
 Alpha  occ. eigenvalues --   -9.49400  -9.49375  -9.49277  -9.49250  -9.49201
 Alpha  occ. eigenvalues --   -9.49169  -7.25950  -7.25904  -7.25862  -7.25765
 Alpha  occ. eigenvalues --   -7.25741  -7.25688  -7.25642  -7.24928  -7.24881
 Alpha  occ. eigenvalues --   -7.24857  -7.24841  -7.24794  -7.24784  -7.24755
 Alpha  occ. eigenvalues --   -7.24726  -7.24688  -7.24679  -7.24667  -7.24649
 Alpha  occ. eigenvalues --   -7.24621  -7.24600  -0.96459  -0.94977  -0.91688
 Alpha  occ. eigenvalues --   -0.90940  -0.89715  -0.88329  -0.86824  -0.85187
 Alpha  occ. eigenvalues --   -0.84626  -0.80192  -0.76118  -0.75123  -0.74419
 Alpha  occ. eigenvalues --   -0.67359  -0.64194  -0.63309  -0.61761  -0.55319
 Alpha  occ. eigenvalues --   -0.54808  -0.53724  -0.53064  -0.50052  -0.48544
 Alpha  occ. eigenvalues --   -0.47191  -0.47000  -0.46749  -0.46141  -0.45125
 Alpha  occ. eigenvalues --   -0.43980  -0.42376  -0.41872  -0.41271  -0.40397
 Alpha  occ. eigenvalues --   -0.39497  -0.38023  -0.37029  -0.35687  -0.35477
 Alpha  occ. eigenvalues --   -0.35363  -0.34989  -0.34266  -0.33774  -0.33571
 Alpha  occ. eigenvalues --   -0.33513  -0.32660  -0.31836  -0.28815  -0.27699
 Alpha  occ. eigenvalues --   -0.26877  -0.26742
 Alpha virt. eigenvalues --   -0.06310  -0.06085  -0.05987  -0.05221  -0.04978
 Alpha virt. eigenvalues --   -0.03182  -0.00819  -0.00262  -0.00049   0.01009
 Alpha virt. eigenvalues --    0.01824   0.02061   0.02237   0.02333   0.02596

 Mulliken charges:
               1
     1  C   -0.107923
     2  C   -0.106747
     3  C   -0.322252
     4  C   -0.566335
     5  C    1.244250
     6  C   -1.453472
     7  C   -0.489580
     8  C   -0.812826
     9  C   -0.564994
    10  C   -0.161270
    11  C    0.110808
    12  C   -0.974458
    13  H    0.157604
    14  H    0.160204
    15  H    0.151021
    16  Cl   0.521778
    17  Cl   0.529061
    18  Cl   0.622200
    19  Cl   0.472649
    20  Cl   0.621871
    21  Cl   0.575956
    22  Cl   0.392456
 Sum of Mulliken charges =  -0.00000

 Dipole moment (field-independent basis, Debye):
    X=             -2.2378    Y=              0.4470    Z=              1.5162  Tot=              2.7398
 Quadrupole moment (field-independent basis, Debye-Ang):
   XX=           -151.1600   YY=           -157.9009   ZZ=           -156.5198
   XY=              0.3769   XZ=             -7.5243   YZ=              0.4263

 Normal termination of Gaussian 16 at Sun Apr  3 12:50:29 2022.
