 Gaussian 16, Revision B.01,
 Gaussian 16:  EM64L-G16RevB.01 20-Dec-2017

 --------------------------------
 # opt b3lyp/6-311+g(d,p) scf=xqc
 --------------------------------

 -------------------
 Title Card Required
 -------------------
 Symbolic Z-matrix:
 Charge =  0 Multiplicity = 1

 SCF Done:  E(RB3LYP) =  -4599.14342559     A.U. after   29 cycles
 SCF Done:  E(RB3LYP) =  -4599.31322839     A.U. after   18 cycles
 SCF Done:  E(RB3LYP) =  -4599.52410364     A.U. after   19 cycles
 SCF Done:  E(RB3LYP) =  -4599.65879480     A.U. after   21 cycles
 SCF Done:  E(RB3LYP) =  -4599.67521405     A.U. after   17 cycles
 SCF Done:  E(RB3LYP) =  -4599.71680809     A.U. after   17 cycles
 SCF Done:  E(RB3LYP) =  -4599.74209086     A.U. after   16 cycles
 SCF Done:  E(RB3LYP) =  -4599.74997572     A.U. after   14 cycles
 SCF Done:  E(RB3LYP) =  -4599.75384056     A.U. after   14 cycles
 SCF Done:  E(RB3LYP) =  -4599.75456710     A.U. after   14 cycles
 SCF Done:  E(RB3LYP) =  -4599.97340585     A.U. after   11 cycles
 SCF Done:  E(RB3LYP) =  -4599.97340634     A.U. after   10 cycles
 SCF Done:  E(RB3LYP) =  -4599.97340713     A.U. after   11 cycles
 SCF Done:  E(RB3LYP) =  -4599.97340830     A.U. after   11 cycles
 SCF Done:  E(RB3LYP) =  -4599.97340947     A.U. after   11 cycles
 SCF Done:  E(RB3LYP) =  -4599.97341167     A.U. after   11 cycles
 SCF Done:  E(RB3LYP) =  -4599.97341540     A.U. after   11 cycles
 SCF Done:  E(RB3LYP) =  -4599.97341830     A.U. after   11 cycles
 SCF Done:  E(RB3LYP) =  -4599.97342134     A.U. after   12 cycles
 SCF Done:  E(RB3LYP) =  -4599.97342204     A.U. after   11 cycles
 Optimization completed.
    -- Stationary point found.

                         Standard orientation:
 ---------------------------------------------------------------------
 Center     Atomic      Atomic             Coordinates (Angstroms)
 Number     Number       Type             X           Y           Z
 ---------------------------------------------------------------------
      1          6           0        0.979403   -0.000348   -0.282813
      2          6           0        1.578423    0.000605   -1.545889
      3          6           0        2.956804    0.000905   -1.701151
      4          6           0        3.771530    0.000293   -0.576021
      5          6           0        3.217736   -0.000526    0.710291
      6          6           0        1.821385   -0.000872    0.838267
      7          6           0       -0.504268   -0.000183   -0.131606
      8          6           0       -1.214444    1.203166   -0.062923
      9          6           0       -2.607423    1.215153    0.071373
     10          6           0       -3.303549   -0.000014    0.138149
     11          6           0       -2.607691   -1.215242    0.070365
     12          6           0       -1.214771   -1.203461   -0.064169
     13          1           0        3.397444    0.001656   -2.687915
     14         17           0       -0.335019   -2.703543   -0.149194
     15         17           0        1.099005   -0.001634    2.423505
     16         17           0       -3.467518   -2.719659    0.152545
     17         17           0        4.238954   -0.001126    2.112499
     18         17           0       -5.030152    0.000088    0.304347
     19         17           0        5.497806    0.000641   -0.812844
     20         17           0       -3.466954    2.719622    0.154334
     21         17           0       -0.335170    2.703827   -0.146170
     22         17           0        0.585150    0.001871   -2.985806
 ---------------------------------------------------------------------

 The electronic state is 1-A.
 Alpha  occ. eigenvalues -- -101.58638-101.58521-101.58521-101.58517-101.58516
 Alpha  occ. eigenvalues -- -101.58434-101.58379-101.58313-101.58286 -10.29088
 Alpha  occ. eigenvalues --  -10.28749 -10.28744 -10.28699 -10.28674 -10.28674
 Alpha  occ. eigenvalues --  -10.28407 -10.28323 -10.28030 -10.25050 -10.24736
 Alpha  occ. eigenvalues --  -10.22777  -9.50104  -9.49995  -9.49993  -9.49987
 Alpha  occ. eigenvalues --   -9.49986  -9.49912  -9.49836  -9.49776  -9.49757
 Alpha  occ. eigenvalues --   -7.26613  -7.26496  -7.26496  -7.26489  -7.26488
 Alpha  occ. eigenvalues --   -7.26403  -7.26330  -7.26281  -7.26235  -7.25585
 Alpha  occ. eigenvalues --   -7.25492  -7.25471  -7.25469  -7.25464  -7.25464
 Alpha  occ. eigenvalues --   -7.25399  -7.25398  -7.25390  -7.25379  -7.25378
 Alpha  occ. eigenvalues --   -7.25318  -7.25314  -7.25253  -7.25249  -7.25231
 Alpha  occ. eigenvalues --   -7.25186  -7.25173  -0.97889  -0.96387  -0.93090
 Alpha  occ. eigenvalues --   -0.92619  -0.91401  -0.90724  -0.88560  -0.87855
 Alpha  occ. eigenvalues --   -0.87370  -0.84737  -0.84276  -0.80185  -0.76204
 Alpha  occ. eigenvalues --   -0.75138  -0.74706  -0.66960  -0.64584  -0.63857
 Alpha  occ. eigenvalues --   -0.62367  -0.56844  -0.55745  -0.55512  -0.52940
 Alpha  occ. eigenvalues --   -0.50329  -0.49243  -0.47873  -0.47872  -0.47586
 Alpha  occ. eigenvalues --   -0.47490  -0.46652  -0.45336  -0.43953  -0.43199
 Alpha  occ. eigenvalues --   -0.42871  -0.41896  -0.40218  -0.39992  -0.39515
 Alpha  occ. eigenvalues --   -0.36880  -0.36517  -0.36382  -0.36055  -0.36047
 Alpha  occ. eigenvalues --   -0.36025  -0.35037  -0.35009  -0.34584  -0.33876
 Alpha  occ. eigenvalues --   -0.33404  -0.33354  -0.32506  -0.31944  -0.28307
 Alpha  occ. eigenvalues --   -0.28010  -0.27371  -0.27188
 Alpha virt. eigenvalues --   -0.07067  -0.06877  -0.06662  -0.06457  -0.06106
 Alpha virt. eigenvalues --   -0.04874  -0.01267  -0.00745  -0.00630   0.00114
 Alpha virt. eigenvalues --    0.00843   0.01228   0.01986   0.02108   0.02342

 Mulliken charges:
               1
     1  C   -0.142452
     2  C   -0.591756
     3  C   -0.591009
     4  C    0.096829
     5  C    0.907472
     6  C   -1.927158
     7  C   -0.676053
     8  C   -1.605968
     9  C    0.159687
    10  C    0.386924
    11  C    0.162121
    12  C   -1.605107
    13  H    0.172902
    14  Cl   0.584549
    15  Cl   0.578804
    16  Cl   0.646028
    17  Cl   0.600389
    18  Cl   0.677861
    19  Cl   0.542146
    20  Cl   0.646088
    21  Cl   0.585086
    22  Cl   0.392615
 Sum of Mulliken charges =  -0.00000

 Dipole moment (field-independent basis, Debye):
    X=              0.4013    Y=              0.0002    Z=             -0.7915  Tot=              0.8874
 Quadrupole moment (field-independent basis, Debye-Ang):
   XX=           -180.9808   YY=           -181.9446   ZZ=           -179.5567
   XY=              0.0003   XZ=             -3.6957   YZ=             -0.0015

 Normal termination of Gaussian 16 at Sat Apr  2 03:07:57 2022.
