 Gaussian 16, Revision B.01,
 Gaussian 16:  EM64L-G16RevB.01 20-Dec-2017

 --------------------------------
 # opt b3lyp/6-311+g(d,p) scf=xqc
 --------------------------------

 -------------------
 Title Card Required
 -------------------
 Symbolic Z-matrix:
 Charge =  0 Multiplicity = 1

 SCF Done:  E(RB3LYP) =  -3220.54670321     A.U. after   27 cycles
 SCF Done:  E(RB3LYP) =  -3219.34391493     A.U. after   30 cycles
 SCF Done:  E(RB3LYP) =  -3220.60936735     A.U. after   20 cycles
 SCF Done:  E(RB3LYP) =  -3220.63604578     A.U. after   18 cycles
 SCF Done:  E(RB3LYP) =  -3220.69261050     A.U. after   18 cycles
 SCF Done:  E(RB3LYP) =  -3220.71518630     A.U. after   19 cycles
 SCF Done:  E(RB3LYP) =  -3220.76555161     A.U. after   19 cycles
 SCF Done:  E(RB3LYP) =  -3220.81331143     A.U. after   18 cycles
 SCF Done:  E(RB3LYP) =  -3220.84175618     A.U. after   18 cycles
 SCF Done:  E(RB3LYP) =  -3220.84701422     A.U. after   18 cycles
 SCF Done:  E(RB3LYP) =  -3221.12942657     A.U. after   14 cycles
 SCF Done:  E(RB3LYP) =  -3221.12944462     A.U. after   13 cycles
 SCF Done:  E(RB3LYP) =  -3221.12945977     A.U. after   13 cycles
 SCF Done:  E(RB3LYP) =  -3221.12947867     A.U. after   13 cycles
 SCF Done:  E(RB3LYP) =  -3221.12950467     A.U. after   13 cycles
 SCF Done:  E(RB3LYP) =  -3221.12952328     A.U. after   12 cycles
 SCF Done:  E(RB3LYP) =  -3221.12954258     A.U. after   12 cycles
 SCF Done:  E(RB3LYP) =  -3221.12955618     A.U. after   12 cycles
 SCF Done:  E(RB3LYP) =  -3221.12956062     A.U. after   12 cycles
 SCF Done:  E(RB3LYP) =  -3221.12956093     A.U. after   12 cycles
 Optimization completed.
    -- Stationary point found.

                         Standard orientation:
 ---------------------------------------------------------------------
 Center     Atomic      Atomic             Coordinates (Angstroms)
 Number     Number       Type             X           Y           Z
 ---------------------------------------------------------------------
      1          6           0        0.999081    0.000418   -0.712536
      2          6           0        1.391944    0.001563   -2.051797
      3          6           0        2.738858    0.002143   -2.395878
      4          6           0        3.710936    0.001541   -1.402588
      5          6           0        3.334310    0.000270   -0.062113
      6          6           0        1.979565   -0.000353    0.288932
      7          6           0       -0.456283    0.000147   -0.373674
      8          6           0       -1.153715   -1.208167   -0.225159
      9          6           0       -2.520910   -1.203665    0.069513
     10          6           0       -3.197826    0.000083    0.214823
     11          6           0       -2.520737    1.203884    0.070353
     12          6           0       -1.153551    1.208479   -0.224226
     13          1           0        0.630413    0.002008   -2.822285
     14          1           0        3.034771    0.003028   -3.437903
     15          1           0        4.763820    0.002003   -1.653427
     16          1           0       -4.254751    0.000106    0.442101
     17         17           0       -0.299148    2.716865   -0.400742
     18         17           0        1.495468   -0.002741    1.965435
     19         17           0       -3.420205    2.685327    0.261969
     20         17           0        4.585745   -0.000519    1.157004
     21         17           0       -3.420338   -2.685210    0.260171
     22         17           0       -0.299419   -2.716379   -0.402801
 ---------------------------------------------------------------------

 The electronic state is 1-A.
 Alpha  occ. eigenvalues -- -101.57863-101.57863-101.57737-101.57737-101.57090
 Alpha  occ. eigenvalues -- -101.56950 -10.27724 -10.27723 -10.27560 -10.27560
 Alpha  occ. eigenvalues --  -10.26735 -10.26451 -10.24273 -10.22900 -10.22589
 Alpha  occ. eigenvalues --  -10.21063 -10.20804 -10.20651  -9.49320  -9.49320
 Alpha  occ. eigenvalues --   -9.49211  -9.49210  -9.48567  -9.48410  -7.25812
 Alpha  occ. eigenvalues --   -7.25811  -7.25701  -7.25701  -7.25046  -7.24892
 Alpha  occ. eigenvalues --   -7.24796  -7.24796  -7.24738  -7.24738  -7.24692
 Alpha  occ. eigenvalues --   -7.24692  -7.24618  -7.24618  -7.24048  -7.23985
 Alpha  occ. eigenvalues --   -7.23891  -7.23834  -0.96041  -0.93464  -0.92029
 Alpha  occ. eigenvalues --   -0.89396  -0.87712  -0.87378  -0.86108  -0.84104
 Alpha  occ. eigenvalues --   -0.79973  -0.75661  -0.75368  -0.74206  -0.67757
 Alpha  occ. eigenvalues --   -0.62849  -0.62368  -0.62118  -0.54901  -0.54825
 Alpha  occ. eigenvalues --   -0.53180  -0.51693  -0.49794  -0.47995  -0.46951
 Alpha  occ. eigenvalues --   -0.46413  -0.45884  -0.45621  -0.43894  -0.43321
 Alpha  occ. eigenvalues --   -0.42225  -0.40809  -0.40048  -0.39847  -0.37516
 Alpha  occ. eigenvalues --   -0.36546  -0.36033  -0.35579  -0.35303  -0.34546
 Alpha  occ. eigenvalues --   -0.34267  -0.33218  -0.32974  -0.32671  -0.32123
 Alpha  occ. eigenvalues --   -0.28198  -0.27780  -0.26733  -0.26442
 Alpha virt. eigenvalues --   -0.06226  -0.05793  -0.05080  -0.04329  -0.04247
 Alpha virt. eigenvalues --   -0.01913  -0.00788  -0.00574   0.00470   0.01325
 Alpha virt. eigenvalues --    0.01979   0.02439   0.02679   0.03014   0.03100

 Mulliken charges:
               1
     1  C   -0.198357
     2  C   -0.120915
     3  C   -0.608840
     4  C   -0.468994
     5  C    0.698305
     6  C   -1.640023
     7  C   -0.031140
     8  C   -0.834201
     9  C    0.456271
    10  C   -0.657387
    11  C    0.457796
    12  C   -0.834902
    13  H    0.131205
    14  H    0.140263
    15  H    0.154893
    16  H    0.174906
    17  Cl   0.590253
    18  Cl   0.530322
    19  Cl   0.500811
    20  Cl   0.468672
    21  Cl   0.500911
    22  Cl   0.590152
 Sum of Mulliken charges =  -0.00000

 Dipole moment (field-independent basis, Debye):
    X=             -0.0862    Y=              0.0017    Z=             -2.3677  Tot=              2.3693
 Quadrupole moment (field-independent basis, Debye-Ang):
   XX=           -138.1885   YY=           -149.9613   ZZ=           -138.9981
   XY=              0.0081   XZ=             -8.0098   YZ=             -0.0085

 Normal termination of Gaussian 16 at Mon Apr  4 00:19:26 2022.
