 Gaussian 16, Revision B.01,
 Gaussian 16:  EM64L-G16RevB.01 20-Dec-2017

 --------------------------------
 # opt b3lyp/6-311+g(d,p) scf=xqc
 --------------------------------

 -------------------
 Title Card Required
 -------------------
 Symbolic Z-matrix:
 Charge =  0 Multiplicity = 1

 SCF Done:  E(RB3LYP) =  -3679.13283617     A.U. after   24 cycles
 SCF Done:  E(RB3LYP) =  -3679.64275639     A.U. after   17 cycles
 SCF Done:  E(RB3LYP) =  -3680.17761577     A.U. after   17 cycles
 SCF Done:  E(RB3LYP) =  -3680.44675942     A.U. after   20 cycles
 SCF Done:  E(RB3LYP) =  -3680.45952778     A.U. after   23 cycles
 SCF Done:  E(RB3LYP) =  -3680.48738219     A.U. after   19 cycles
 SCF Done:  E(RB3LYP) =  -3680.49567787     A.U. after   17 cycles
 SCF Done:  E(RB3LYP) =  -3680.50120178     A.U. after   17 cycles
 SCF Done:  E(RB3LYP) =  -3680.50797275     A.U. after   18 cycles
 SCF Done:  E(RB3LYP) =  -3680.51887899     A.U. after   19 cycles
 SCF Done:  E(RB3LYP) =  -3680.74652480     A.U. after   14 cycles
 SCF Done:  E(RB3LYP) =  -3680.74696461     A.U. after   13 cycles
 SCF Done:  E(RB3LYP) =  -3680.74716785     A.U. after   13 cycles
 SCF Done:  E(RB3LYP) =  -3680.74733727     A.U. after   14 cycles
 SCF Done:  E(RB3LYP) =  -3680.74747780     A.U. after   14 cycles
 SCF Done:  E(RB3LYP) =  -3680.74760336     A.U. after   14 cycles
 SCF Done:  E(RB3LYP) =  -3680.74768456     A.U. after   14 cycles
 SCF Done:  E(RB3LYP) =  -3680.74771655     A.U. after   13 cycles
 SCF Done:  E(RB3LYP) =  -3680.74771887     A.U. after   12 cycles
 SCF Done:  E(RB3LYP) =  -3680.74771916     A.U. after   11 cycles
 Optimization completed.
    -- Stationary point found.

                         Standard orientation:
 ---------------------------------------------------------------------
 Center     Atomic      Atomic             Coordinates (Angstroms)
 Number     Number       Type             X           Y           Z
 ---------------------------------------------------------------------
      1          6           0        1.050892    0.119803    0.144387
      2          6           0        1.832085    0.520497   -0.940632
      3          6           0        3.222836    0.507790   -0.882341
      4          6           0        3.858655    0.087711    0.289359
      5          6           0        3.096776   -0.310671    1.384319
      6          6           0        1.709652   -0.292501    1.308271
      7          6           0       -0.437014    0.173936    0.040421
      8          6           0       -1.089343    1.381968    0.274117
      9          6           0       -2.471302    1.482132    0.176954
     10          6           0       -3.239620    0.363182   -0.161494
     11          6           0       -2.594600   -0.861148   -0.404538
     12          6           0       -1.198955   -0.949086   -0.303873
     13          1           0        1.348906    0.841800   -1.854464
     14          1           0        3.588474   -0.631407    2.292262
     15          1           0       -0.513938    2.257339    0.544615
     16         17           0       -0.391391   -2.461951   -0.614938
     17         17           0        0.794921   -0.793978    2.715244
     18         17           0       -3.528434   -2.260422   -0.832922
     19         17           0       -4.966061    0.486895   -0.282132
     20         17           0        5.596032    0.050046    0.424058
     21         17           0       -3.213935    3.028950    0.488026
     22         17           0        4.128643    1.020494   -2.281579
 ---------------------------------------------------------------------

 The electronic state is 1-A.
 Alpha  occ. eigenvalues -- -101.58249-101.58209-101.58089-101.58042-101.57978
 Alpha  occ. eigenvalues -- -101.57862-101.57793 -10.28499 -10.28421 -10.28016
 Alpha  occ. eigenvalues --  -10.27813 -10.27735 -10.27406 -10.27365 -10.24031
 Alpha  occ. eigenvalues --  -10.23727 -10.22543 -10.22529 -10.22503  -9.49712
 Alpha  occ. eigenvalues --   -9.49676  -9.49544  -9.49516  -9.49433  -9.49316
 Alpha  occ. eigenvalues --   -9.49261  -7.26217  -7.26181  -7.26037  -7.26006
 Alpha  occ. eigenvalues --   -7.25921  -7.25804  -7.25734  -7.25193  -7.25157
 Alpha  occ. eigenvalues --   -7.25106  -7.25069  -7.25021  -7.24997  -7.24961
 Alpha  occ. eigenvalues --   -7.24925  -7.24912  -7.24852  -7.24793  -7.24739
 Alpha  occ. eigenvalues --   -7.24738  -7.24695  -0.96611  -0.94999  -0.92054
 Alpha  occ. eigenvalues --   -0.91173  -0.89782  -0.88440  -0.87121  -0.85904
 Alpha  occ. eigenvalues --   -0.84482  -0.80012  -0.76764  -0.75612  -0.74068
 Alpha  occ. eigenvalues --   -0.66978  -0.65225  -0.64145  -0.61131  -0.55500
 Alpha  occ. eigenvalues --   -0.55028  -0.53867  -0.52889  -0.50201  -0.48945
 Alpha  occ. eigenvalues --   -0.47352  -0.47249  -0.46910  -0.46402  -0.45229
 Alpha  occ. eigenvalues --   -0.44416  -0.42759  -0.41912  -0.41411  -0.40548
 Alpha  occ. eigenvalues --   -0.39592  -0.38268  -0.37125  -0.35944  -0.35782
 Alpha  occ. eigenvalues --   -0.35457  -0.35188  -0.34216  -0.33889  -0.33827
 Alpha  occ. eigenvalues --   -0.33617  -0.33095  -0.32028  -0.28894  -0.28084
 Alpha  occ. eigenvalues --   -0.27130  -0.26864
 Alpha virt. eigenvalues --   -0.06843  -0.06524  -0.05681  -0.05347  -0.05098
 Alpha virt. eigenvalues --   -0.03149  -0.00991  -0.00535  -0.00151   0.00835
 Alpha virt. eigenvalues --    0.01729   0.01815   0.02131   0.02151   0.02398

 Mulliken charges:
               1
     1  C    0.205391
     2  C   -0.946758
     3  C    0.261358
     4  C    0.113860
     5  C   -0.626678
     6  C   -0.739645
     7  C   -0.254977
     8  C   -0.778755
     9  C   -0.507977
    10  C   -0.206039
    11  C   -0.010430
    12  C   -0.744460
    13  H    0.151517
    14  H    0.174589
    15  H    0.151433
    16  Cl   0.562755
    17  Cl   0.373977
    18  Cl   0.610370
    19  Cl   0.622471
    20  Cl   0.502560
    21  Cl   0.561949
    22  Cl   0.523486
 Sum of Mulliken charges =  -0.00000

 Dipole moment (field-independent basis, Debye):
    X=              0.5230    Y=              0.6679    Z=              0.2362  Tot=              0.8806
 Quadrupole moment (field-independent basis, Debye-Ang):
   XX=           -163.8641   YY=           -157.3872   ZZ=           -156.2794
   XY=             -0.5375   XZ=              3.1829   YZ=             -0.5680

 Normal termination of Gaussian 16 at Fri Mar 25 05:38:46 2022.
