 Gaussian 16, Revision B.01,
 Gaussian 16:  EM64L-G16RevB.01 20-Dec-2017

 --------------------------------
 # opt b3lyp/6-311+g(d,p) scf=xqc
 --------------------------------

 -------------------
 Title Card Required
 -------------------
 Symbolic Z-matrix:
 Charge =  0 Multiplicity = 1

 SCF Done:  E(RB3LYP) =  -2300.27861441     A.U. after   19 cycles
 SCF Done:  E(RB3LYP) =  -2300.78649278     A.U. after   16 cycles
 SCF Done:  E(RB3LYP) =  -2301.31975355     A.U. after   18 cycles
 SCF Done:  E(RB3LYP) =  -2301.58856465     A.U. after   17 cycles
 SCF Done:  E(RB3LYP) =  -2301.60400334     A.U. after   33 cycles
 SCF Done:  E(RB3LYP) =  -2301.60400335     a.u. after    2 cycles
 SCF Done:  E(RB3LYP) =  -2301.63732964     A.U. after   18 cycles
 SCF Done:  E(RB3LYP) =  -2301.66120907     A.U. after   19 cycles
 SCF Done:  E(RB3LYP) =  -2301.67725287     A.U. after   18 cycles
 SCF Done:  E(RB3LYP) =  -2301.71044670     A.U. after   20 cycles
 SCF Done:  E(RB3LYP) =  -2301.90431715     A.U. after   14 cycles
 SCF Done:  E(RB3LYP) =  -2301.90427747     A.U. after   14 cycles
 SCF Done:  E(RB3LYP) =  -2301.90427999     A.U. after   12 cycles
 SCF Done:  E(RB3LYP) =  -2301.90432562     A.U. after   14 cycles
 SCF Done:  E(RB3LYP) =  -2301.90428133     A.U. after   13 cycles
 SCF Done:  E(RB3LYP) =  -2301.90428150     A.U. after   12 cycles
 SCF Done:  E(RB3LYP) =  -2301.90432373     A.U. after   13 cycles
 SCF Done:  E(RB3LYP) =  -2301.90428152     A.U. after   13 cycles
 SCF Done:  E(RB3LYP) =  -2301.90432325     A.U. after   13 cycles
 SCF Done:  E(RB3LYP) =  -2301.90428152     A.U. after   13 cycles
 Optimization completed on the basis of negligible forces.
    -- Stationary point found.

                         Standard orientation:
 ---------------------------------------------------------------------
 Center     Atomic      Atomic             Coordinates (Angstroms)
 Number     Number       Type             X           Y           Z
 ---------------------------------------------------------------------
      1          6           0        0.725313    0.040833   -0.175657
      2          6           0        1.577559   -0.884510    0.437108
      3          6           0        2.928799   -0.916558    0.115315
      4          6           0        3.464121   -0.037451   -0.819705
      5          6           0        2.625744    0.883326   -1.438629
      6          6           0        1.271466    0.919042   -1.118641
      7          6           0       -0.725320    0.040834    0.175649
      8          6           0       -1.577572   -0.884494   -0.437127
      9          6           0       -2.928810   -0.916539   -0.115326
     10          6           0       -3.464123   -0.037452    0.819716
     11          6           0       -2.625738    0.883311    1.438651
     12          6           0       -1.271464    0.919030    1.118653
     13          1           0        1.178333   -1.572147    1.171543
     14          1           0        4.518061   -0.070469   -1.063273
     15          1           0        3.021564    1.573630   -2.172273
     16          1           0       -1.178355   -1.572122   -1.171576
     17          1           0       -4.518060   -0.070471    1.063295
     18          1           0       -3.021551    1.573599    2.172314
     19         17           0       -0.249666    2.089044    1.934768
     20         17           0        0.249695    2.089080   -1.934749
     21         17           0       -3.974305   -2.086643   -0.903408
     22         17           0        3.974286   -2.086672    0.903385
 ---------------------------------------------------------------------

 The electronic state is 1-A.
 Alpha  occ. eigenvalues -- -101.56723-101.56723-101.56640-101.56640 -10.25949
 Alpha  occ. eigenvalues --  -10.25949 -10.25796 -10.25796 -10.22623 -10.22594
 Alpha  occ. eigenvalues --  -10.21150 -10.21150 -10.21103 -10.21103 -10.21041
 Alpha  occ. eigenvalues --  -10.21041  -9.48178  -9.48178  -9.48110  -9.48109
 Alpha  occ. eigenvalues --   -7.24643  -7.24643  -7.24575  -7.24575  -7.23658
 Alpha  occ. eigenvalues --   -7.23658  -7.23624  -7.23624  -7.23591  -7.23591
 Alpha  occ. eigenvalues --   -7.23548  -7.23548  -0.93397  -0.91856  -0.89324
 Alpha  occ. eigenvalues --   -0.88854  -0.84478  -0.83680  -0.81270  -0.77183
 Alpha  occ. eigenvalues --   -0.74431  -0.73497  -0.66979  -0.64079  -0.63059
 Alpha  occ. eigenvalues --   -0.59953  -0.54403  -0.52814  -0.51700  -0.51273
 Alpha  occ. eigenvalues --   -0.49485  -0.47634  -0.46006  -0.45475  -0.45419
 Alpha  occ. eigenvalues --   -0.42833  -0.42724  -0.41760  -0.39842  -0.39700
 Alpha  occ. eigenvalues --   -0.38932  -0.38341  -0.37756  -0.33429  -0.33332
 Alpha  occ. eigenvalues --   -0.33026  -0.32856  -0.32793  -0.32775  -0.29162
 Alpha  occ. eigenvalues --   -0.28750  -0.26019  -0.25893
 Alpha virt. eigenvalues --   -0.05396  -0.05223  -0.04255  -0.03817  -0.01286
 Alpha virt. eigenvalues --   -0.00700   0.00302   0.00557   0.00687   0.01172
 Alpha virt. eigenvalues --    0.01810   0.02566   0.03371   0.03838   0.04892

 Mulliken charges:
               1
     1  C    0.412067
     2  C   -1.082879
     3  C    0.994849
     4  C   -0.636609
     5  C   -0.545487
     6  C   -0.395488
     7  C    0.412062
     8  C   -1.082864
     9  C    0.994853
    10  C   -0.636606
    11  C   -0.545519
    12  C   -0.395482
    13  H    0.147175
    14  H    0.155678
    15  H    0.155259
    16  H    0.147175
    17  H    0.155678
    18  H    0.155258
    19  Cl   0.392173
    20  Cl   0.392170
    21  Cl   0.403269
    22  Cl   0.403268
 Sum of Mulliken charges =  -0.00000

 Dipole moment (field-independent basis, Debye):
    X=             -0.0000    Y=              0.2590    Z=              0.0000  Tot=              0.2590
 Quadrupole moment (field-independent basis, Debye-Ang):
   XX=           -113.8142   YY=           -124.0504   ZZ=           -120.0857
   XY=              0.0000   XZ=             -9.2993   YZ=             -0.0000

 Normal termination of Gaussian 16 at Tue Mar 15 17:11:05 2022.
