 Gaussian 16, Revision B.01,
 Gaussian 16:  EM64L-G16RevB.01 20-Dec-2017

 --------------------------------
 # opt b3lyp/6-311+g(d,p) scf=xqc
 --------------------------------

 -------------------
 Title Card Required
 -------------------
 Symbolic Z-matrix:
 Charge =  0 Multiplicity = 1

 SCF Done:  E(RB3LYP) =  -3219.51675030     A.U. after   22 cycles
 SCF Done:  E(RB3LYP) =  -3220.02658845     A.U. after   17 cycles
 SCF Done:  E(RB3LYP) =  -3220.56116754     A.U. after   18 cycles
 SCF Done:  E(RB3LYP) =  -3220.83020063     A.U. after   20 cycles
 SCF Done:  E(RB3LYP) =  -3220.84344296     A.U. after   23 cycles
 SCF Done:  E(RB3LYP) =  -3220.87246750     A.U. after   19 cycles
 SCF Done:  E(RB3LYP) =  -3220.88208220     A.U. after   18 cycles
 SCF Done:  E(RB3LYP) =  -3220.88905522     A.U. after   18 cycles
 SCF Done:  E(RB3LYP) =  -3220.89766701     A.U. after   19 cycles
 SCF Done:  E(RB3LYP) =  -3220.91092257     A.U. after   19 cycles
 SCF Done:  E(RB3LYP) =  -3221.13155488     A.U. after   14 cycles
 SCF Done:  E(RB3LYP) =  -3221.13186092     A.U. after   13 cycles
 SCF Done:  E(RB3LYP) =  -3221.13206202     A.U. after   14 cycles
 SCF Done:  E(RB3LYP) =  -3221.13221086     A.U. after   13 cycles
 SCF Done:  E(RB3LYP) =  -3221.13242698     A.U. after   15 cycles
 SCF Done:  E(RB3LYP) =  -3221.13252958     A.U. after   15 cycles
 SCF Done:  E(RB3LYP) =  -3221.13253875     A.U. after   13 cycles
 SCF Done:  E(RB3LYP) =  -3221.13254018     A.U. after   12 cycles
 SCF Done:  E(RB3LYP) =  -3221.13254074     A.U. after   12 cycles
 SCF Done:  E(RB3LYP) =  -3221.13254132     A.U. after   12 cycles
 Optimization completed.
    -- Stationary point found.

                         Standard orientation:
 ---------------------------------------------------------------------
 Center     Atomic      Atomic             Coordinates (Angstroms)
 Number     Number       Type             X           Y           Z
 ---------------------------------------------------------------------
      1          6           0        0.798525   -0.005850    0.359711
      2          6           0        1.600066    1.109083    0.108179
      3          6           0        2.982932    1.003181   -0.010420
      4          6           0        3.591755   -0.247218    0.127017
      5          6           0        2.810995   -1.370886    0.383164
      6          6           0        1.431924   -1.246251    0.497837
      7          6           0       -0.676798    0.165680    0.505123
      8          6           0       -1.206162    0.563969    1.734072
      9          6           0       -2.570919    0.746591    1.904100
     10          6           0       -3.436144    0.533239    0.836578
     11          6           0       -2.939706    0.136945   -0.411928
     12          6           0       -1.555419   -0.042556   -0.565732
     13          1           0        1.137382    2.080966   -0.006498
     14          1           0        3.281842   -2.337866    0.493869
     15          1           0       -0.535395    0.724581    2.569293
     16          1           0       -2.973783    1.052149    2.860563
     17         17           0       -0.908590   -0.525252   -2.112658
     18         17           0        0.494913   -2.688859    0.829950
     19         17           0       -4.019233   -0.122388   -1.747429
     20         17           0       -5.146267    0.772507    1.090322
     21         17           0        5.318633   -0.444555   -0.010113
     22         17           0        3.913701    2.444112   -0.327921
 ---------------------------------------------------------------------

 The electronic state is 1-A.
 Alpha  occ. eigenvalues -- -101.57760-101.57680-101.57644-101.57609-101.57597
 Alpha  occ. eigenvalues -- -101.57496 -10.27685 -10.27590 -10.27460 -10.27320
 Alpha  occ. eigenvalues --  -10.27134 -10.27042 -10.23342 -10.23223 -10.22227
 Alpha  occ. eigenvalues --  -10.22213 -10.21688 -10.21629  -9.49215  -9.49145
 Alpha  occ. eigenvalues --   -9.49098  -9.49073  -9.49067  -9.48965  -7.25703
 Alpha  occ. eigenvalues --   -7.25646  -7.25585  -7.25558  -7.25554  -7.25437
 Alpha  occ. eigenvalues --   -7.24694  -7.24635  -7.24627  -7.24576  -7.24556
 Alpha  occ. eigenvalues --   -7.24548  -7.24543  -7.24521  -7.24486  -7.24483
 Alpha  occ. eigenvalues --   -7.24444  -7.24398  -0.95493  -0.94538  -0.91064
 Alpha  occ. eigenvalues --   -0.89933  -0.88326  -0.87758  -0.85696  -0.84468
 Alpha  occ. eigenvalues --   -0.79833  -0.76327  -0.76252  -0.73776  -0.66390
 Alpha  occ. eigenvalues --   -0.64542  -0.64204  -0.60994  -0.55413  -0.53679
 Alpha  occ. eigenvalues --   -0.53314  -0.52403  -0.49781  -0.48600  -0.46781
 Alpha  occ. eigenvalues --   -0.46698  -0.46593  -0.45149  -0.44889  -0.43523
 Alpha  occ. eigenvalues --   -0.41560  -0.41429  -0.40516  -0.39397  -0.38580
 Alpha  occ. eigenvalues --   -0.36882  -0.36492  -0.35290  -0.34974  -0.34529
 Alpha  occ. eigenvalues --   -0.34181  -0.33708  -0.33428  -0.32897  -0.31929
 Alpha  occ. eigenvalues --   -0.28609  -0.27495  -0.27407  -0.26596
 Alpha virt. eigenvalues --   -0.06354  -0.05901  -0.05264  -0.04833  -0.03950
 Alpha virt. eigenvalues --   -0.02873  -0.00897  -0.00105   0.00720   0.01437
 Alpha virt. eigenvalues --    0.01745   0.01978   0.02325   0.02415   0.03660

 Mulliken charges:
               1
     1  C    0.283322
     2  C   -0.919262
     3  C    0.260752
     4  C    0.093299
     5  C   -0.617141
     6  C   -0.877286
     7  C    0.318511
     8  C   -0.450145
     9  C   -0.984133
    10  C    0.253079
    11  C    0.359734
    12  C   -1.348695
    13  H    0.151474
    14  H    0.173874
    15  H    0.135748
    16  H    0.159301
    17  Cl   0.518890
    18  Cl   0.377183
    19  Cl   0.587171
    20  Cl   0.501191
    21  Cl   0.500315
    22  Cl   0.522815
 Sum of Mulliken charges =  -0.00000

 Dipole moment (field-independent basis, Debye):
    X=              0.2248    Y=              0.4815    Z=              1.8996  Tot=              1.9725
 Quadrupole moment (field-independent basis, Debye-Ang):
   XX=           -153.7908   YY=           -143.9760   ZZ=           -141.2101
   XY=             -3.8175   XZ=             -2.3073   YZ=              1.8986

 Normal termination of Gaussian 16 at Thu Mar 17 05:26:04 2022.
