 Gaussian 16, Revision B.01,
 Gaussian 16:  EM64L-G16RevB.01 20-Dec-2017

 --------------------------------
 # opt b3lyp/6-311+g(d,p) scf=xqc
 --------------------------------

 -------------------
 Title Card Required
 -------------------
 Symbolic Z-matrix:
 Charge =  0 Multiplicity = 1

 SCF Done:  E(RB3LYP) =  -2301.32979720     A.U. after   27 cycles
 SCF Done:  E(RB3LYP) =  -2301.45342763     A.U. after   19 cycles
 SCF Done:  E(RB3LYP) =  -2300.34515624     A.U. after   22 cycles
 SCF Done:  E(RB3LYP) =  -2301.59612070     A.U. after   17 cycles
 SCF Done:  E(RB3LYP) =  -2301.63990530     A.U. after   15 cycles
 SCF Done:  E(RB3LYP) =  -2301.67954423     A.U. after   17 cycles
 SCF Done:  E(RB3LYP) =  -2301.71480037     A.U. after   15 cycles
 SCF Done:  E(RB3LYP) =  -2301.73643584     A.U. after   16 cycles
 SCF Done:  E(RB3LYP) =  -2301.77060439     A.U. after   16 cycles
 SCF Done:  E(RB3LYP) =  -2301.79358428     A.U. after   14 cycles
 SCF Done:  E(RB3LYP) =  -2301.89717426     A.U. after   12 cycles
 SCF Done:  E(RB3LYP) =  -2301.89718071     A.U. after   12 cycles
 SCF Done:  E(RB3LYP) =  -2301.89719101     A.U. after   12 cycles
 SCF Done:  E(RB3LYP) =  -2301.89720629     A.U. after   13 cycles
 SCF Done:  E(RB3LYP) =  -2301.89722004     A.U. after   12 cycles
 SCF Done:  E(RB3LYP) =  -2301.89723125     A.U. after   13 cycles
 SCF Done:  E(RB3LYP) =  -2301.89723380     A.U. after   11 cycles
 SCF Done:  E(RB3LYP) =  -2301.89723570     A.U. after   11 cycles
 SCF Done:  E(RB3LYP) =  -2301.89723653     A.U. after   11 cycles
 SCF Done:  E(RB3LYP) =  -2301.89723687     A.U. after   11 cycles
 Optimization completed.
    -- Stationary point found.

                         Standard orientation:
 ---------------------------------------------------------------------
 Center     Atomic      Atomic             Coordinates (Angstroms)
 Number     Number       Type             X           Y           Z
 ---------------------------------------------------------------------
      1          6           0       -1.219503   -0.155827   -0.400400
      2          6           0       -1.764122   -0.363844   -1.672328
      3          6           0       -3.055184   -0.855822   -1.830642
      4          6           0       -3.826685   -1.148866   -0.708059
      5          6           0       -3.306904   -0.949781    0.567259
      6          6           0       -2.013087   -0.457051    0.710650
      7          6           0        0.166685    0.379154   -0.263122
      8          6           0        0.414046    1.755696   -0.208741
      9          6           0        1.702597    2.267339   -0.097721
     10          6           0        2.780693    1.396921   -0.039787
     11          6           0        2.573743    0.021776   -0.092078
     12          6           0        1.274818   -0.484795   -0.203348
     13          1           0       -1.159186   -0.133927   -2.541853
     14          1           0       -3.456203   -1.009217   -2.825446
     15          1           0       -4.834079   -1.532656   -0.820123
     16          1           0       -3.894301   -1.172683    1.448672
     17          1           0        1.857670    3.337180   -0.056370
     18          1           0        3.789510    1.778898    0.047021
     19         17           0        1.009883   -2.207963   -0.265066
     20         17           0       -1.383130   -0.216915    2.333788
     21         17           0        3.962866   -1.034439   -0.017747
     22         17           0       -0.922913    2.888904   -0.275799
 ---------------------------------------------------------------------

 The electronic state is 1-A.
 Alpha  occ. eigenvalues -- -101.56971-101.56908-101.56711-101.55995 -10.26908
 Alpha  occ. eigenvalues --  -10.26389 -10.26242 -10.25176 -10.23021 -10.21583
 Alpha  occ. eigenvalues --  -10.21372 -10.21056 -10.19892 -10.19855 -10.19745
 Alpha  occ. eigenvalues --  -10.19390  -9.48429  -9.48383  -9.48181  -9.47469
 Alpha  occ. eigenvalues --   -7.24914  -7.24868  -7.24651  -7.23927  -7.23909
 Alpha  occ. eigenvalues --   -7.23868  -7.23852  -7.23791  -7.23663  -7.23612
 Alpha  occ. eigenvalues --   -7.22953  -7.22913  -0.94313  -0.90936  -0.89664
 Alpha  occ. eigenvalues --   -0.87433  -0.85057  -0.83752  -0.80321  -0.75952
 Alpha  occ. eigenvalues --   -0.74700  -0.73728  -0.66176  -0.62906  -0.62180
 Alpha  occ. eigenvalues --   -0.60547  -0.54648  -0.52684  -0.52312  -0.49477
 Alpha  occ. eigenvalues --   -0.48840  -0.47258  -0.45853  -0.45301  -0.44567
 Alpha  occ. eigenvalues --   -0.43791  -0.41736  -0.41537  -0.40001  -0.38840
 Alpha  occ. eigenvalues --   -0.38014  -0.37844  -0.36104  -0.34472  -0.34300
 Alpha  occ. eigenvalues --   -0.33009  -0.32875  -0.32365  -0.32134  -0.27807
 Alpha  occ. eigenvalues --   -0.27608  -0.26165  -0.25896
 Alpha virt. eigenvalues --   -0.05049  -0.04834  -0.03845  -0.03261  -0.02608
 Alpha virt. eigenvalues --   -0.00406   0.00124   0.00709   0.01412   0.01926
 Alpha virt. eigenvalues --    0.02694   0.02847   0.03168   0.04606   0.04800

 Mulliken charges:
               1
     1  C    0.648896
     2  C   -0.678406
     3  C   -0.298583
     4  C   -0.067205
     5  C   -0.557353
     6  C   -0.736009
     7  C    0.117597
     8  C   -0.056257
     9  C   -0.309085
    10  C   -0.560481
    11  C    1.012793
    12  C   -1.185994
    13  H    0.128085
    14  H    0.133297
    15  H    0.135588
    16  H    0.148356
    17  H    0.155474
    18  H    0.157652
    19  Cl   0.529375
    20  Cl   0.393226
    21  Cl   0.483419
    22  Cl   0.405613
 Sum of Mulliken charges =  -0.00000

 Dipole moment (field-independent basis, Debye):
    X=             -0.8075    Y=              0.8080    Z=             -1.4309  Tot=              1.8309
 Quadrupole moment (field-independent basis, Debye-Ang):
   XX=           -109.3478   YY=           -119.3991   ZZ=           -118.6645
   XY=             10.5653   XZ=              3.0016   YZ=              0.7680

 Normal termination of Gaussian 16 at Sat Apr  9 00:43:20 2022.
