 Gaussian 16, Revision B.01,
 Gaussian 16:  EM64L-G16RevB.01 20-Dec-2017

 --------------------------------
 # opt b3lyp/6-311+g(d,p) scf=xqc
 --------------------------------

 -------------------
 Title Card Required
 -------------------
 Symbolic Z-matrix:
 Charge =  0 Multiplicity = 1

 SCF Done:  E(RB3LYP) =  -2300.27988049     A.U. after   20 cycles
 SCF Done:  E(RB3LYP) =  -2300.78931834     A.U. after   17 cycles
 SCF Done:  E(RB3LYP) =  -2301.32394168     A.U. after   18 cycles
 SCF Done:  E(RB3LYP) =  -2301.59315712     A.U. after   20 cycles
 SCF Done:  E(RB3LYP) =  -2301.60787804     A.U. after   23 cycles
 SCF Done:  E(RB3LYP) =  -2301.63843631     A.U. after   18 cycles
 SCF Done:  E(RB3LYP) =  -2301.65056134     A.U. after   18 cycles
 SCF Done:  E(RB3LYP) =  -2301.65985962     A.U. after   17 cycles
 SCF Done:  E(RB3LYP) =  -2301.67547463     A.U. after   19 cycles
 SCF Done:  E(RB3LYP) =  -2301.69555619     A.U. after   18 cycles
 SCF Done:  E(RB3LYP) =  -2301.89986579     A.U. after   13 cycles
 SCF Done:  E(RB3LYP) =  -2301.89992329     A.U. after   13 cycles
 SCF Done:  E(RB3LYP) =  -2301.89996210     A.U. after   12 cycles
 SCF Done:  E(RB3LYP) =  -2301.89998330     A.U. after   11 cycles
 SCF Done:  E(RB3LYP) =  -2301.90000376     A.U. after   12 cycles
 SCF Done:  E(RB3LYP) =  -2301.90001538     A.U. after   12 cycles
 SCF Done:  E(RB3LYP) =  -2301.90001447     A.U. after   12 cycles
 SCF Done:  E(RB3LYP) =  -2301.90001495     A.U. after   11 cycles
 SCF Done:  E(RB3LYP) =  -2301.90001564     A.U. after   12 cycles
 SCF Done:  E(RB3LYP) =  -2301.90001495     A.U. after   12 cycles
 Optimization completed.
    -- Stationary point found.

                         Standard orientation:
 ---------------------------------------------------------------------
 Center     Atomic      Atomic             Coordinates (Angstroms)
 Number     Number       Type             X           Y           Z
 ---------------------------------------------------------------------
      1          6           0        0.680565    0.415141   -0.349253
      2          6           0        1.368719    0.227512   -1.553130
      3          6           0        2.733680   -0.036776   -1.585601
      4          6           0        3.429242   -0.113869   -0.383999
      5          6           0        2.786598    0.070053    0.834168
      6          6           0        1.419298    0.332909    0.836416
      7          6           0       -0.780034    0.723610   -0.367503
      8          6           0       -1.200991    2.040468   -0.569529
      9          6           0       -2.553858    2.361161   -0.610662
     10          6           0       -3.509674    1.365293   -0.451929
     11          6           0       -3.109249    0.046468   -0.253579
     12          6           0       -1.748630   -0.280059   -0.211544
     13          1           0        0.815588    0.283849   -2.483422
     14          1           0        3.248071   -0.182231   -2.526300
     15          1           0        3.334193    0.012584    1.764558
     16          1           0       -0.452307    2.814775   -0.686550
     17          1           0       -2.866494    3.386961   -0.764460
     18          1           0       -4.566658    1.596445   -0.480238
     19         17           0       -1.242970   -1.934242    0.027595
     20         17           0        0.631888    0.569194    2.386502
     21         17           0       -4.342085   -1.178597   -0.065081
     22         17           0        5.152791   -0.445994   -0.397648
 ---------------------------------------------------------------------

 The electronic state is 1-A.
 Alpha  occ. eigenvalues -- -101.56776-101.56716-101.56679-101.56667 -10.26353
 Alpha  occ. eigenvalues --  -10.26223 -10.26165 -10.26017 -10.22292 -10.22081
 Alpha  occ. eigenvalues --  -10.21075 -10.20951 -10.20759 -10.20636 -10.20422
 Alpha  occ. eigenvalues --  -10.20359  -9.48231  -9.48177  -9.48154  -9.48138
 Alpha  occ. eigenvalues --   -7.24697  -7.24657  -7.24634  -7.24605  -7.23712
 Alpha  occ. eigenvalues --   -7.23675  -7.23659  -7.23640  -7.23621  -7.23601
 Alpha  occ. eigenvalues --   -7.23574  -7.23570  -0.93641  -0.92268  -0.88992
 Alpha  occ. eigenvalues --   -0.87180  -0.85936  -0.84367  -0.79454  -0.76811
 Alpha  occ. eigenvalues --   -0.75007  -0.74081  -0.65428  -0.64050  -0.62415
 Alpha  occ. eigenvalues --   -0.60703  -0.55079  -0.52376  -0.51488  -0.50985
 Alpha  occ. eigenvalues --   -0.48906  -0.47499  -0.45728  -0.45553  -0.45422
 Alpha  occ. eigenvalues --   -0.43145  -0.42860  -0.41551  -0.39661  -0.39539
 Alpha  occ. eigenvalues --   -0.38546  -0.37633  -0.35847  -0.35121  -0.33984
 Alpha  occ. eigenvalues --   -0.33662  -0.33365  -0.32712  -0.31792  -0.27834
 Alpha  occ. eigenvalues --   -0.27598  -0.26462  -0.26391
 Alpha virt. eigenvalues --   -0.05177  -0.04854  -0.04181  -0.03684  -0.02079
 Alpha virt. eigenvalues --   -0.01219  -0.00464   0.00835   0.01668   0.01815
 Alpha virt. eigenvalues --    0.02127   0.02791   0.03177   0.03940   0.04760

 Mulliken charges:
               1
     1  C    1.003993
     2  C   -0.687131
     3  C   -0.655130
     4  C    0.830616
     5  C   -0.262576
     6  C   -1.074449
     7  C    0.204566
     8  C   -0.360551
     9  C   -0.445588
    10  C   -0.478214
    11  C    0.809783
    12  C   -1.560450
    13  H    0.135405
    14  H    0.153488
    15  H    0.169230
    16  H    0.130750
    17  H    0.139201
    18  H    0.153139
    19  Cl   0.566472
    20  Cl   0.376568
    21  Cl   0.444273
    22  Cl   0.406605
 Sum of Mulliken charges =  -0.00000

 Dipole moment (field-independent basis, Debye):
    X=             -0.3267    Y=              2.4134    Z=             -1.6346  Tot=              2.9331
 Quadrupole moment (field-independent basis, Debye-Ang):
   XX=           -122.2934   YY=           -116.7825   ZZ=           -117.6149
   XY=             -6.3731   XZ=              0.3917   YZ=             -2.1574

 1\1\GINC-DAMODAR\FOpt\RB3LYP\6-311+G(d,p)\C12H6Cl4\PKC\15-Mar-2022\0\\
 # opt b3lyp/6-311+g(d,p) scf=xqc\\Title Card Required\\0,1\C,-0.206581
 3231,0.3665310068,0.0553991495\C,1.1041849576,0.3460681031,0.544841437
 7\C,1.8782767,1.4989400137,0.6202733855\C,1.3288443963,2.7030974208,0.
 1939804403\C,0.0328527534,2.7684562104,-0.3028902897\C,-0.7191948591,1
 .598418224,-0.3664778431\C,-0.9882096834,-0.9024725354,-0.0313492639\C
 ,-0.813449018,-1.7422412792,-1.1342451634\C,-1.5114240974,-2.940841032
 9,-1.2390128558\C,-2.3964430301,-3.3199715328,-0.2372471817\C,-2.58077

 Normal termination of Gaussian 16 at Tue Mar 15 18:19:58 2022.
