 Gaussian 16, Revision B.01,
 Gaussian 16:  EM64L-G16RevB.01 20-Dec-2017

 --------------------------------
 # opt b3lyp/6-311+g(d,p) scf=xqc
 --------------------------------

 -------------------
 Title Card Required
 -------------------
 Symbolic Z-matrix:
 Charge =  0 Multiplicity = 1

 SCF Done:  E(RB3LYP) =  -2760.93096670     A.U. after   27 cycles
 SCF Done:  E(RB3LYP) =  -2760.51669234     A.U. after   23 cycles
 SCF Done:  E(RB3LYP) =  -2761.01137843     A.U. after   19 cycles
 SCF Done:  E(RB3LYP) =  -2761.06790773     A.U. after   18 cycles
 SCF Done:  E(RB3LYP) =  -2761.16731893     A.U. after   18 cycles
 SCF Done:  E(RB3LYP) =  -2761.21287682     A.U. after   17 cycles
 SCF Done:  E(RB3LYP) =  -2761.28107445     A.U. after   18 cycles
 SCF Done:  E(RB3LYP) =  -2761.32042321     A.U. after   18 cycles
 SCF Done:  E(RB3LYP) =  -2761.34709623     A.U. after   16 cycles
 SCF Done:  E(RB3LYP) =  -2761.39513260     A.U. after   16 cycles
 SCF Done:  E(RB3LYP) =  -2761.51254973     A.U. after   12 cycles
 SCF Done:  E(RB3LYP) =  -2761.51256178     A.U. after   12 cycles
 SCF Done:  E(RB3LYP) =  -2761.51257379     A.U. after   13 cycles
 SCF Done:  E(RB3LYP) =  -2761.51258451     A.U. after   12 cycles
 SCF Done:  E(RB3LYP) =  -2761.51258893     A.U. after   12 cycles
 SCF Done:  E(RB3LYP) =  -2761.51259054     A.U. after   11 cycles
 SCF Done:  E(RB3LYP) =  -2761.51259158     A.U. after   11 cycles
 SCF Done:  E(RB3LYP) =  -2761.51259232     A.U. after   11 cycles
 SCF Done:  E(RB3LYP) =  -2761.51259269     A.U. after   10 cycles
 SCF Done:  E(RB3LYP) =  -2761.51259278     A.U. after   10 cycles
 Optimization completed.
    -- Stationary point found.

                         Standard orientation:
 ---------------------------------------------------------------------
 Center     Atomic      Atomic             Coordinates (Angstroms)
 Number     Number       Type             X           Y           Z
 ---------------------------------------------------------------------
      1          6           0       -1.696236   -0.037778    0.397805
      2          6           0       -2.280322   -0.145498    1.664586
      3          6           0       -3.643517   -0.378817    1.810402
      4          6           0       -4.448251   -0.508126    0.680421
      5          6           0       -3.890087   -0.404044   -0.590008
      6          6           0       -2.524283   -0.170439   -0.721180
      7          6           0       -0.232255    0.220288    0.273562
      8          6           0        0.278419    1.522331    0.233021
      9          6           0        1.638875    1.778484    0.134359
     10          6           0        2.531399    0.716551    0.074094
     11          6           0        2.073036   -0.605466    0.111964
     12          6           0        0.692243   -0.834131    0.211891
     13          1           0       -1.649396   -0.044124    2.540104
     14          1           0       -4.074354   -0.458938    2.801284
     15          1           0       -5.511773   -0.690031    0.782746
     16          1           0       -4.502859   -0.501967   -1.476862
     17          1           0        2.004868    2.794821    0.103442
     18         17           0        0.094600   -2.471682    0.255309
     19         17           0       -1.846050   -0.043816   -2.337147
     20         17           0        3.193398   -1.929807    0.038543
     21         17           0        4.232992    1.079263   -0.048729
     22         17           0       -0.807916    2.894285    0.301659
 ---------------------------------------------------------------------

 The electronic state is 1-A.
 Alpha  occ. eigenvalues -- -101.57715-101.57626-101.57454-101.57318-101.56311
 Alpha  occ. eigenvalues --  -10.27751 -10.27575 -10.27513 -10.27071 -10.25501
 Alpha  occ. eigenvalues --  -10.23478 -10.21955 -10.21945 -10.20220 -10.20154
 Alpha  occ. eigenvalues --  -10.20044 -10.19687  -9.49173  -9.49089  -9.48930
 Alpha  occ. eigenvalues --   -9.48787  -9.47784  -7.25665  -7.25592  -7.25422
 Alpha  occ. eigenvalues --   -7.25264  -7.24651  -7.24589  -7.24569  -7.24488
 Alpha  occ. eigenvalues --   -7.24414  -7.24333  -7.24266  -7.24242  -7.24213
 Alpha  occ. eigenvalues --   -7.23267  -7.23228  -0.95743  -0.91821  -0.90462
 Alpha  occ. eigenvalues --   -0.89850  -0.87013  -0.85379  -0.83513  -0.80234
 Alpha  occ. eigenvalues --   -0.76047  -0.75232  -0.73938  -0.65617  -0.63598
 Alpha  occ. eigenvalues --   -0.62904  -0.60795  -0.55125  -0.54501  -0.52218
 Alpha  occ. eigenvalues --   -0.49825  -0.49154  -0.47859  -0.46702  -0.45833
 Alpha  occ. eigenvalues --   -0.45384  -0.44829  -0.42895  -0.42743  -0.40662
 Alpha  occ. eigenvalues --   -0.39570  -0.38935  -0.38432  -0.37877  -0.35664
 Alpha  occ. eigenvalues --   -0.35322  -0.34708  -0.34231  -0.33632  -0.32759
 Alpha  occ. eigenvalues --   -0.32436  -0.31907  -0.27952  -0.27499  -0.26563
 Alpha  occ. eigenvalues --   -0.26425
 Alpha virt. eigenvalues --   -0.05789  -0.05489  -0.04492  -0.04058  -0.03608
 Alpha virt. eigenvalues --   -0.00735  -0.00076   0.00380   0.01283   0.01396
 Alpha virt. eigenvalues --    0.01857   0.02508   0.02919   0.03407   0.04307

 Mulliken charges:
               1
     1  C    0.161941
     2  C   -0.511825
     3  C   -0.291239
     4  C   -0.057336
     5  C   -0.150742
     6  C   -0.878389
     7  C    0.273314
     8  C   -0.365950
     9  C   -0.673799
    10  C   -0.010521
    11  C    0.646104
    12  C   -1.379292
    13  H    0.128283
    14  H    0.134258
    15  H    0.136458
    16  H    0.148382
    17  H    0.173008
    18  Cl   0.586352
    19  Cl   0.399970
    20  Cl   0.601384
    21  Cl   0.524049
    22  Cl   0.405592
 Sum of Mulliken charges =  -0.00000

 Dipole moment (field-independent basis, Debye):
    X=             -1.9662    Y=              0.4501    Z=              1.5154  Tot=              2.5228
 Quadrupole moment (field-independent basis, Debye-Ang):
   XX=           -122.2977   YY=           -133.8288   ZZ=           -130.0877
   XY=              4.6659   XZ=             -3.5094   YZ=             -0.2347

 Normal termination of Gaussian 16 at Sun Apr  3 13:06:42 2022.
