 Gaussian 16, Revision B.01,
 Gaussian 16:  EM64L-G16RevB.01 20-Dec-2017

 --------------------------------
 # opt b3lyp/6-311+g(d,p) scf=xqc
 --------------------------------

 -------------------
 Title Card Required
 -------------------
 Symbolic Z-matrix:
 Charge =  0 Multiplicity = 1

 SCF Done:  E(RB3LYP) =  -2300.27883072     A.U. after   20 cycles
 SCF Done:  E(RB3LYP) =  -2300.78839333     A.U. after   18 cycles
 SCF Done:  E(RB3LYP) =  -2301.32327065     A.U. after   18 cycles
 SCF Done:  E(RB3LYP) =  -2301.59221319     A.U. after   20 cycles
 SCF Done:  E(RB3LYP) =  -2301.60547436     A.U. after   23 cycles
 SCF Done:  E(RB3LYP) =  -2301.63631062     A.U. after   18 cycles
 SCF Done:  E(RB3LYP) =  -2301.64738556     A.U. after   17 cycles
 SCF Done:  E(RB3LYP) =  -2301.65551114     A.U. after   19 cycles
 SCF Done:  E(RB3LYP) =  -2301.66614619     A.U. after   19 cycles
 SCF Done:  E(RB3LYP) =  -2301.67965764     A.U. after   18 cycles
 SCF Done:  E(RB3LYP) =  -2301.89952530     A.U. after   14 cycles
 SCF Done:  E(RB3LYP) =  -2301.89966198     A.U. after   14 cycles
 SCF Done:  E(RB3LYP) =  -2301.89980788     A.U. after   15 cycles
 SCF Done:  E(RB3LYP) =  -2301.89988478     A.U. after   14 cycles
 SCF Done:  E(RB3LYP) =  -2301.89999661     A.U. after   14 cycles
 SCF Done:  E(RB3LYP) =  -2301.90001860     A.U. after   13 cycles
 SCF Done:  E(RB3LYP) =  -2301.90002142     A.U. after   11 cycles
 SCF Done:  E(RB3LYP) =  -2301.90002224     A.U. after   11 cycles
 SCF Done:  E(RB3LYP) =  -2301.90002234     A.U. after   10 cycles
 SCF Done:  E(RB3LYP) =  -2301.90002244     A.U. after   10 cycles
 Optimization completed.
    -- Stationary point found.

                         Standard orientation:
 ---------------------------------------------------------------------
 Center     Atomic      Atomic             Coordinates (Angstroms)
 Number     Number       Type             X           Y           Z
 ---------------------------------------------------------------------
      1          6           0        0.861688   -0.186543    0.346283
      2          6           0        1.767653    0.879507    0.319763
      3          6           0        3.098558    0.663601   -0.015519
      4          6           0        3.561799   -0.609463   -0.329010
      5          6           0        2.671492   -1.677392   -0.301732
      6          6           0        1.337259   -1.465064    0.033717
      7          6           0       -0.556616    0.070391    0.737340
      8          6           0       -0.892650    0.136181    2.091678
      9          6           0       -2.200513    0.389132    2.491973
     10          6           0       -3.193860    0.583264    1.540093
     11          6           0       -2.876193    0.525861    0.185534
     12          6           0       -1.561211    0.271459   -0.221552
     13          1           0        1.422573    1.878087    0.555072
     14          1           0        4.600350   -0.766947   -0.589396
     15          1           0        3.012071   -2.676982   -0.538965
     16          1           0       -0.115896   -0.021504    2.830266
     17          1           0       -2.448967    0.434180    3.545464
     18          1           0       -4.216827    0.780710    1.833350
     19         17           0       -1.156366    0.209416   -1.918693
     20         17           0        0.253160   -2.844780    0.064916
     21         17           0       -4.152613    0.782995   -0.980732
     22         17           0        4.211245    2.022184   -0.042384
 ---------------------------------------------------------------------

 The electronic state is 1-A.
 Alpha  occ. eigenvalues -- -101.56715-101.56690-101.56653-101.56536 -10.26382
 Alpha  occ. eigenvalues --  -10.26176 -10.25824 -10.25699 -10.22474 -10.22339
 Alpha  occ. eigenvalues --  -10.21024 -10.21004 -10.20940 -10.20769 -10.20451
 Alpha  occ. eigenvalues --  -10.20375  -9.48176  -9.48164  -9.48107  -9.48007
 Alpha  occ. eigenvalues --   -7.24656  -7.24645  -7.24572  -7.24472  -7.23658
 Alpha  occ. eigenvalues --   -7.23649  -7.23600  -7.23587  -7.23580  -7.23554
 Alpha  occ. eigenvalues --   -7.23488  -7.23445  -0.93654  -0.92119  -0.89074
 Alpha  occ. eigenvalues --   -0.87204  -0.85912  -0.83819  -0.80558  -0.76109
 Alpha  occ. eigenvalues --   -0.75026  -0.73695  -0.66664  -0.63537  -0.62437
 Alpha  occ. eigenvalues --   -0.60470  -0.54487  -0.52750  -0.51496  -0.51069
 Alpha  occ. eigenvalues --   -0.49222  -0.47370  -0.45716  -0.45501  -0.45323
 Alpha  occ. eigenvalues --   -0.43137  -0.42712  -0.41454  -0.39719  -0.39536
 Alpha  occ. eigenvalues --   -0.38630  -0.37999  -0.35838  -0.35128  -0.33996
 Alpha  occ. eigenvalues --   -0.33115  -0.32912  -0.32709  -0.31873  -0.28793
 Alpha  occ. eigenvalues --   -0.27576  -0.26423  -0.25848
 Alpha virt. eigenvalues --   -0.05178  -0.04959  -0.04216  -0.03625  -0.02030
 Alpha virt. eigenvalues --   -0.00695  -0.00148   0.00668   0.01036   0.02011
 Alpha virt. eigenvalues --    0.02239   0.02721   0.03256   0.03968   0.04774

 Mulliken charges:
               1
     1  C    0.502152
     2  C   -0.449923
     3  C    0.782697
     4  C   -0.578064
     5  C   -0.807761
     6  C   -0.348529
     7  C    0.294675
     8  C   -0.343643
     9  C   -0.423890
    10  C   -0.554332
    11  C    0.735365
    12  C   -1.505979
    13  H    0.146096
    14  H    0.155122
    15  H    0.154423
    16  H    0.130727
    17  H    0.139286
    18  H    0.153422
    19  Cl   0.523662
    20  Cl   0.418919
    21  Cl   0.459939
    22  Cl   0.415638
 Sum of Mulliken charges =  -0.00000

 Dipole moment (field-independent basis, Debye):
    X=              0.5704    Y=             -0.2947    Z=              2.2788  Tot=              2.3676
 Quadrupole moment (field-independent basis, Debye-Ang):
   XX=           -116.7719   YY=           -122.1284   ZZ=           -115.3647
   XY=             -6.3234   XZ=             -7.4480   YZ=              2.5803

 1\1\GINC-DAMODAR\FOpt\RB3LYP\6-311+G(d,p)\C12H6Cl4\PKC\15-Mar-2022\0\\
 # opt b3lyp/6-311+g(d,p) scf=xqc\\Title Card Required\\0,1\C,-0.721092
 0926,1.287445968,1.0961021824\C,0.608404119,1.2501824452,1.5308310797\
 C,1.365029752,2.4143600863,1.581274218\C,0.8246874283,3.6379732686,1.2
 013228483\C,-0.4942969723,3.6865738461,0.7633941897\C,-1.2555764462,2.
 5222963705,0.7114533777\C,-1.5019358466,0.0162876971,1.0256209077\C,-1
 .3633243934,-0.811830251,-0.0908403991\C,-2.0632003899,-2.0103403545,-
 0.1828851556\C,-2.9125574939,-2.4003433242,0.8452154762\C,-3.059440007

 Normal termination of Gaussian 16 at Tue Mar 15 18:05:23 2022.
