 Gaussian 16, Revision B.01,
 Gaussian 16:  EM64L-G16RevB.01 20-Dec-2017

 --------------------------------
 # opt b3lyp/6-311+g(d,p) scf=xqc
 --------------------------------

 -------------------
 Title Card Required
 -------------------
 Symbolic Z-matrix:
 Charge =  0 Multiplicity = 1

 SCF Done:  E(RB3LYP) =  -3680.18410587     A.U. after   31 cycles
 SCF Done:  E(RB3LYP) =  -3680.30206493     A.U. after   19 cycles
 SCF Done:  E(RB3LYP) =  -3680.40307906     A.U. after   20 cycles
 SCF Done:  E(RB3LYP) =  -3680.47831334     A.U. after   18 cycles
 SCF Done:  E(RB3LYP) =  -3680.55041261     A.U. after   18 cycles
 SCF Done:  E(RB3LYP) =  -3680.61372103     A.U. after   16 cycles
 SCF Done:  E(RB3LYP) =  -3680.32613769     A.U. after   18 cycles
 SCF Done:  E(RB3LYP) =  -3680.62101221     A.U. after   15 cycles
 SCF Done:  E(RB3LYP) =  -3680.64427530     A.U. after   15 cycles
 SCF Done:  E(RB3LYP) =  -3680.49807504     A.U. after   20 cycles
 SCF Done:  E(RB3LYP) =  -3680.74367495     A.U. after   12 cycles
 SCF Done:  E(RB3LYP) =  -3680.74368795     A.U. after   12 cycles
 SCF Done:  E(RB3LYP) =  -3680.74370744     A.U. after   14 cycles
 SCF Done:  E(RB3LYP) =  -3680.74372422     A.U. after   12 cycles
 SCF Done:  E(RB3LYP) =  -3680.74375617     A.U. after   13 cycles
 SCF Done:  E(RB3LYP) =  -3680.74377627     A.U. after   13 cycles
 SCF Done:  E(RB3LYP) =  -3680.74379350     A.U. after   12 cycles
 SCF Done:  E(RB3LYP) =  -3680.74380967     A.U. after   14 cycles
 SCF Done:  E(RB3LYP) =  -3680.74381435     A.U. after   12 cycles
 SCF Done:  E(RB3LYP) =  -3680.74381501     A.U. after   11 cycles
 Optimization completed.
    -- Stationary point found.

                         Standard orientation:
 ---------------------------------------------------------------------
 Center     Atomic      Atomic             Coordinates (Angstroms)
 Number     Number       Type             X           Y           Z
 ---------------------------------------------------------------------
      1          6           0        1.396678    0.000145    0.254295
      2          6           0        2.053175    0.000756    1.488729
      3          6           0        3.440032    0.000676    1.576358
      4          6           0        4.186166    0.000060    0.402112
      5          6           0        3.571462   -0.000383   -0.844165
      6          6           0        2.180936   -0.000283   -0.903007
      7          6           0       -0.094552   -0.000138    0.201400
      8          6           0       -0.811939    1.202230    0.184560
      9          6           0       -2.211653    1.214573    0.150642
     10          6           0       -2.911389    0.000161    0.133389
     11          6           0       -2.211903   -1.214359    0.150935
     12          6           0       -0.812239   -1.202358    0.185078
     13          1           0        1.462232    0.001254    2.397112
     14          1           0        3.934366    0.001047    2.538695
     15          1           0        4.157650   -0.000776   -1.752513
     16         17           0        0.067150   -2.706634    0.201636
     17         17           0        1.420477   -0.001019   -2.482850
     18         17           0       -3.076745   -2.718927    0.130667
     19         17           0       -4.646244    0.000207    0.092300
     20         17           0        5.937864    0.000027    0.488163
     21         17           0       -3.075874    2.719414    0.130354
     22         17           0        0.067320    2.706460    0.200599
 ---------------------------------------------------------------------

 The electronic state is 1-A.
 Alpha  occ. eigenvalues -- -101.58453-101.58335-101.58335-101.58179-101.58179
 Alpha  occ. eigenvalues -- -101.57349-101.57210 -10.28837 -10.28517 -10.28511
 Alpha  occ. eigenvalues --  -10.28374 -10.28373 -10.26883 -10.26589 -10.24544
 Alpha  occ. eigenvalues --  -10.22978 -10.21619 -10.21617 -10.21169  -9.49920
 Alpha  occ. eigenvalues --   -9.49801  -9.49801  -9.49655  -9.49654  -9.48820
 Alpha  occ. eigenvalues --   -9.48665  -7.26428  -7.26309  -7.26309  -7.26150
 Alpha  occ. eigenvalues --   -7.26149  -7.25400  -7.25309  -7.25287  -7.25280
 Alpha  occ. eigenvalues --   -7.25279  -7.25193  -7.25193  -7.25136  -7.25135
 Alpha  occ. eigenvalues --   -7.25133  -7.25056  -7.25056  -7.24300  -7.24258
 Alpha  occ. eigenvalues --   -7.24146  -7.24106  -0.97389  -0.93553  -0.92809
 Alpha  occ. eigenvalues --   -0.91495  -0.89388  -0.88268  -0.87249  -0.85257
 Alpha  occ. eigenvalues --   -0.84164  -0.79633  -0.77365  -0.74854  -0.74248
 Alpha  occ. eigenvalues --   -0.66118  -0.64768  -0.63531  -0.61484  -0.56447
 Alpha  occ. eigenvalues --   -0.55642  -0.52598  -0.52138  -0.49731  -0.48781
 Alpha  occ. eigenvalues --   -0.47594  -0.47105  -0.46995  -0.46301  -0.44500
 Alpha  occ. eigenvalues --   -0.44457  -0.42774  -0.41463  -0.40787  -0.40572
 Alpha  occ. eigenvalues --   -0.39326  -0.38258  -0.36586  -0.36202  -0.36103
 Alpha  occ. eigenvalues --   -0.35804  -0.34975  -0.34031  -0.33992  -0.33587
 Alpha  occ. eigenvalues --   -0.33299  -0.32972  -0.31689  -0.28349  -0.27796
 Alpha  occ. eigenvalues --   -0.27046  -0.26976
 Alpha virt. eigenvalues --   -0.06648  -0.06528  -0.06109  -0.05312  -0.04925
 Alpha virt. eigenvalues --   -0.01902  -0.01076  -0.00674   0.00071   0.01051
 Alpha virt. eigenvalues --    0.01400   0.01771   0.02163   0.02595   0.02928

 Mulliken charges:
               1
     1  C    0.315224
     2  C   -0.698068
     3  C   -0.661266
     4  C    0.887291
     5  C   -0.184653
     6  C   -1.363187
     7  C   -0.507218
     8  C   -1.396731
     9  C    0.113062
    10  C    0.388354
    11  C    0.112096
    12  C   -1.395702
    13  H    0.135260
    14  H    0.154831
    15  H    0.169396
    16  Cl   0.602475
    17  Cl   0.367201
    18  Cl   0.629825
    19  Cl   0.677952
    20  Cl   0.421521
    21  Cl   0.629734
    22  Cl   0.602602
 Sum of Mulliken charges =  -0.00000

 Dipole moment (field-independent basis, Debye):
    X=              0.4951    Y=              0.0012    Z=              1.2348  Tot=              1.3303
 Quadrupole moment (field-independent basis, Debye-Ang):
   XX=           -159.6363   YY=           -159.4383   ZZ=           -152.4387
   XY=              0.0007   XZ=              1.4057   YZ=              0.0037

 Normal termination of Gaussian 16 at Thu Apr 14 16:51:00 2022.
