 Gaussian 16, Revision B.01,
 Gaussian 16:  EM64L-G16RevB.01 20-Dec-2017

 --------------------------------
 # opt b3lyp/6-311+g(d,p) scf=xqc
 --------------------------------

 -------------------
 Title Card Required
 -------------------
 Symbolic Z-matrix:
 Charge =  0 Multiplicity = 1

 SCF Done:  E(RB3LYP) =  -2759.89735063     A.U. after   20 cycles
 SCF Done:  E(RB3LYP) =  -2760.40695812     A.U. after   16 cycles
 SCF Done:  E(RB3LYP) =  -2760.94181937     A.U. after   18 cycles
 SCF Done:  E(RB3LYP) =  -2761.21061428     A.U. after   20 cycles
 SCF Done:  E(RB3LYP) =  -2761.22412371     A.U. after   22 cycles
 SCF Done:  E(RB3LYP) =  -2761.25423966     A.U. after   19 cycles
 SCF Done:  E(RB3LYP) =  -2761.26514948     A.U. after   18 cycles
 SCF Done:  E(RB3LYP) =  -2761.27287918     A.U. after   18 cycles
 SCF Done:  E(RB3LYP) =  -2761.28232997     A.U. after   19 cycles
 SCF Done:  E(RB3LYP) =  -2761.29682261     A.U. after   19 cycles
 SCF Done:  E(RB3LYP) =  -2761.51507582     A.U. after   14 cycles
 SCF Done:  E(RB3LYP) =  -2761.51577447     A.U. after   15 cycles
 SCF Done:  E(RB3LYP) =  -2761.51615489     A.U. after   14 cycles
 SCF Done:  E(RB3LYP) =  -2761.51633481     A.U. after   13 cycles
 SCF Done:  E(RB3LYP) =  -2761.51651241     A.U. after   15 cycles
 SCF Done:  E(RB3LYP) =  -2761.51654469     A.U. after   14 cycles
 SCF Done:  E(RB3LYP) =  -2761.51656059     A.U. after   13 cycles
 SCF Done:  E(RB3LYP) =  -2761.51656365     A.U. after   12 cycles
 SCF Done:  E(RB3LYP) =  -2761.51656364     A.U. after   11 cycles
 SCF Done:  E(RB3LYP) =  -2761.51656360     A.U. after   11 cycles
 Optimization completed.
    -- Stationary point found.

                         Standard orientation:
 ---------------------------------------------------------------------
 Center     Atomic      Atomic             Coordinates (Angstroms)
 Number     Number       Type             X           Y           Z
 ---------------------------------------------------------------------
      1          6           0        0.328382   -0.038670    0.442955
      2          6           0        1.174308    1.068524    0.356779
      3          6           0        2.534667    0.931062    0.095942
      4          6           0        3.075628   -0.344706   -0.083702
      5          6           0        2.250581   -1.462495    0.002589
      6          6           0        0.894799   -1.305930    0.263576
      7          6           0       -1.118423    0.162752    0.751617
      8          6           0       -1.519889    0.328966    2.079288
      9          6           0       -2.857785    0.532915    2.400594
     10          6           0       -3.815626    0.576061    1.395094
     11          6           0       -3.433039    0.416554    0.065638
     12          6           0       -2.087719    0.211025   -0.262082
     13          1           0        0.763771    2.061525    0.487537
     14          1           0        2.669105   -2.450260   -0.132069
     15          1           0       -0.770565    0.288441    2.860672
     16          1           0       -3.157092    0.657105    3.434283
     17          1           0       -4.861064    0.733342    1.626964
     18         17           0       -1.601339    0.021798   -1.928014
     19         17           0       -0.097804   -2.745696    0.372095
     20         17           0       -4.666535    0.484746   -1.170308
     21         17           0        4.771815   -0.582429   -0.412326
     22         17           0        3.523307    2.365904    0.001662
 ---------------------------------------------------------------------

 The electronic state is 1-A.
 Alpha  occ. eigenvalues -- -101.57516-101.57396-101.57174-101.57018-101.56979
 Alpha  occ. eigenvalues --  -10.27167 -10.26843 -10.26718 -10.26718 -10.26480
 Alpha  occ. eigenvalues --  -10.22977 -10.22726 -10.21932 -10.21883 -10.21078
 Alpha  occ. eigenvalues --  -10.20793 -10.20686  -9.48972  -9.48851  -9.48644
 Alpha  occ. eigenvalues --   -9.48493  -9.48439  -7.25459  -7.25337  -7.25116
 Alpha  occ. eigenvalues --   -7.24973  -7.24921  -7.24451  -7.24392  -7.24329
 Alpha  occ. eigenvalues --   -7.24274  -7.24123  -7.24077  -7.23977  -7.23921
 Alpha  occ. eigenvalues --   -7.23909  -7.23862  -0.94698  -0.93402  -0.90440
 Alpha  occ. eigenvalues --   -0.88048  -0.87443  -0.86250  -0.84300  -0.79987
 Alpha  occ. eigenvalues --   -0.76348  -0.75343  -0.73975  -0.66488  -0.64622
 Alpha  occ. eigenvalues --   -0.62772  -0.60692  -0.54988  -0.53252  -0.52678
 Alpha  occ. eigenvalues --   -0.51477  -0.49544  -0.47974  -0.46341  -0.46144
 Alpha  occ. eigenvalues --   -0.45813  -0.44519  -0.43571  -0.42647  -0.41056
 Alpha  occ. eigenvalues --   -0.40153  -0.39383  -0.38913  -0.36624  -0.36173
 Alpha  occ. eigenvalues --   -0.35470  -0.34718  -0.34251  -0.33416  -0.33223
 Alpha  occ. eigenvalues --   -0.32655  -0.32067  -0.28343  -0.27914  -0.26730
 Alpha  occ. eigenvalues --   -0.26312
 Alpha virt. eigenvalues --   -0.05885  -0.05448  -0.04676  -0.04148  -0.02901
 Alpha virt. eigenvalues --   -0.01962  -0.00658   0.00195   0.00875   0.01755
 Alpha virt. eigenvalues --    0.02006   0.02504   0.02564   0.03524   0.03736

 Mulliken charges:
               1
     1  C    1.012260
     2  C   -0.897480
     3  C    0.187584
     4  C    0.048839
     5  C   -0.793341
     6  C   -0.730553
     7  C    0.284925
     8  C   -0.389035
     9  C   -0.361109
    10  C   -0.650609
    11  C    0.838360
    12  C   -1.748546
    13  H    0.151706
    14  H    0.172999
    15  H    0.131155
    16  H    0.140320
    17  H    0.154382
    18  Cl   0.552930
    19  Cl   0.410149
    20  Cl   0.453423
    21  Cl   0.500038
    22  Cl   0.531600
 Sum of Mulliken charges =   0.00000

 Dipole moment (field-independent basis, Debye):
    X=             -0.8950    Y=              0.2977    Z=              2.5631  Tot=              2.7312
 Quadrupole moment (field-independent basis, Debye-Ang):
   XX=           -134.7226   YY=           -132.7314   ZZ=           -127.6622
   XY=             -4.3089   XZ=             -7.3086   YZ=              2.3899

 Normal termination of Gaussian 16 at Wed Mar 16 17:04:57 2022.
