 Gaussian 16, Revision B.01,
 Gaussian 16:  EM64L-G16RevB.01 20-Dec-2017

 --------------------------------
 # opt b3lyp/6-311+g(d,p) scf=xqc
 --------------------------------

 -------------------
 Title Card Required
 -------------------
 Symbolic Z-matrix:
 Charge =  0 Multiplicity = 1

 SCF Done:  E(RB3LYP) =  -4139.79734058     A.U. after   28 cycles
 SCF Done:  E(RB3LYP) =  -4139.89187027     A.U. after   21 cycles
 SCF Done:  E(RB3LYP) =  -4140.05777722     A.U. after   19 cycles
 SCF Done:  E(RB3LYP) =  -4139.74826427     A.U. after   18 cycles
 SCF Done:  E(RB3LYP) =  -4140.14002646     A.U. after   17 cycles
 SCF Done:  E(RB3LYP) =  -4140.13163085     A.U. after   18 cycles
 SCF Done:  E(RB3LYP) =  -4140.19749855     A.U. after   15 cycles
 SCF Done:  E(RB3LYP) =  -4140.19915698     A.U. after   17 cycles
 SCF Done:  E(RB3LYP) =  -4140.24223559     A.U. after   17 cycles
 SCF Done:  E(RB3LYP) =  -4140.25421076     A.U. after   15 cycles
 SCF Done:  E(RB3LYP) =  -4140.36051774     A.U. after   12 cycles
 SCF Done:  E(RB3LYP) =  -4140.36053357     A.U. after   13 cycles
 SCF Done:  E(RB3LYP) =  -4140.36054823     A.U. after   12 cycles
 SCF Done:  E(RB3LYP) =  -4140.36056287     A.U. after   12 cycles
 SCF Done:  E(RB3LYP) =  -4140.36057845     A.U. after   12 cycles
 SCF Done:  E(RB3LYP) =  -4140.36059360     A.U. after   12 cycles
 SCF Done:  E(RB3LYP) =  -4140.36060841     A.U. after   12 cycles
 SCF Done:  E(RB3LYP) =  -4140.36061816     A.U. after   12 cycles
 SCF Done:  E(RB3LYP) =  -4140.36061935     A.U. after   12 cycles
 SCF Done:  E(RB3LYP) =  -4140.36061952     A.U. after   10 cycles
 Optimization completed.
    -- Stationary point found.

                         Standard orientation:
 ---------------------------------------------------------------------
 Center     Atomic      Atomic             Coordinates (Angstroms)
 Number     Number       Type             X           Y           Z
 ---------------------------------------------------------------------
      1          6           0        0.953291    0.085503    0.323457
      2          6           0        1.555346   -0.208531    1.551443
      3          6           0        2.934244   -0.238668    1.703924
      4          6           0        3.749235    0.030369    0.611940
      5          6           0        3.195006    0.331022   -0.638425
      6          6           0        1.797818    0.354983   -0.764150
      7          6           0       -0.531152    0.134288    0.180452
      8          6           0       -1.197408    1.333964    0.411720
      9          6           0       -2.578233    1.418452    0.295446
     10          6           0       -3.329060    0.291754   -0.057863
     11          6           0       -2.667780   -0.925223   -0.293073
     12          6           0       -1.273366   -0.997535   -0.172802
     13          1           0        3.374663   -0.469875    2.663357
     14          1           0       -0.634974    2.216493    0.685862
     15         17           0       -0.442713   -2.501225   -0.463777
     16         17           0        1.078769    0.720697   -2.309242
     17         17           0       -3.579478   -2.335730   -0.731784
     18         17           0        4.217036    0.668951   -1.998845
     19         17           0       -5.054586    0.396627   -0.202865
     20         17           0        5.475550   -0.016663    0.844658
     21         17           0       -3.342796    2.955682    0.599993
     22         17           0        0.566610   -0.559450    2.952355
 ---------------------------------------------------------------------

 The electronic state is 1-A.
 Alpha  occ. eigenvalues -- -101.58432-101.58417-101.58370-101.58272-101.58206
 Alpha  occ. eigenvalues -- -101.58164-101.58087-101.58020 -10.28737 -10.28449
 Alpha  occ. eigenvalues --  -10.28446 -10.28388 -10.28380 -10.28062 -10.28002
 Alpha  occ. eigenvalues --  -10.27757 -10.24631 -10.24152 -10.22832 -10.22516
 Alpha  occ. eigenvalues --   -9.49892  -9.49888  -9.49833  -9.49741  -9.49669
 Alpha  occ. eigenvalues --   -9.49630  -9.49562  -9.49476  -7.26385  -7.26383
 Alpha  occ. eigenvalues --   -7.26338  -7.26220  -7.26174  -7.26136  -7.26051
 Alpha  occ. eigenvalues --   -7.25969  -7.25374  -7.25366  -7.25311  -7.25301
 Alpha  occ. eigenvalues --   -7.25296  -7.25229  -7.25218  -7.25167  -7.25151
 Alpha  occ. eigenvalues --   -7.25111  -7.25063  -7.25040  -7.25024  -7.24973
 Alpha  occ. eigenvalues --   -7.24953  -7.24893  -0.97035  -0.96097  -0.92276
 Alpha  occ. eigenvalues --   -0.91601  -0.91204  -0.89694  -0.87855  -0.87070
 Alpha  occ. eigenvalues --   -0.85482  -0.84291  -0.79961  -0.76356  -0.75719
 Alpha  occ. eigenvalues --   -0.74408  -0.66798  -0.64653  -0.64153  -0.61932
 Alpha  occ. eigenvalues --   -0.55742  -0.55483  -0.55106  -0.52974  -0.50225
 Alpha  occ. eigenvalues --   -0.49082  -0.47612  -0.47565  -0.47270  -0.46505
 Alpha  occ. eigenvalues --   -0.46481  -0.44814  -0.43135  -0.42840  -0.42203
 Alpha  occ. eigenvalues --   -0.40799  -0.40067  -0.39480  -0.38305  -0.36362
 Alpha  occ. eigenvalues --   -0.36204  -0.35888  -0.35698  -0.35373  -0.35103
 Alpha  occ. eigenvalues --   -0.34643  -0.33820  -0.33789  -0.33406  -0.32497
 Alpha  occ. eigenvalues --   -0.32022  -0.28432  -0.27963  -0.27405  -0.27052
 Alpha virt. eigenvalues --   -0.06864  -0.06585  -0.06371  -0.05746  -0.05507
 Alpha virt. eigenvalues --   -0.04624  -0.00997  -0.00657  -0.00231   0.00570
 Alpha virt. eigenvalues --    0.01217   0.01708   0.01963   0.02140   0.02313

 Mulliken charges:
               1
     1  C   -0.202304
     2  C   -0.281286
     3  C   -0.626429
     4  C    0.075464
     5  C    0.796911
     6  C   -1.644717
     7  C   -0.408940
     8  C   -0.901373
     9  C   -0.522499
    10  C   -0.195487
    11  C    0.086794
    12  C   -0.958169
    13  H    0.174937
    14  H    0.151903
    15  Cl   0.547748
    16  Cl   0.584656
    17  Cl   0.619077
    18  Cl   0.589872
    19  Cl   0.624740
    20  Cl   0.533530
    21  Cl   0.577091
    22  Cl   0.378481
 Sum of Mulliken charges =  -0.00000

 Dipole moment (field-independent basis, Debye):
    X=              0.9992    Y=              0.4989    Z=              0.9956  Tot=              1.4961
 Quadrupole moment (field-independent basis, Debye-Ang):
   XX=           -172.4184   YY=           -169.1574   ZZ=           -168.0434
   XY=             -0.2750   XZ=              3.5621   YZ=              0.1061

 Normal termination of Gaussian 16 at Mon Apr  4 23:00:12 2022.
