 Gaussian 16, Revision B.01,
 Gaussian 16:  EM64L-G16RevB.01 20-Dec-2017

 --------------------------------
 # opt b3lyp/6-311+g(d,p) scf=xqc
 --------------------------------

 -------------------
 Title Card Required
 -------------------
 Symbolic Z-matrix:
 Charge =  0 Multiplicity = 1

 SCF Done:  E(RB3LYP) =  -2760.94852743     A.U. after   27 cycles
 SCF Done:  E(RB3LYP) =  -2761.06100258     A.U. after   20 cycles
 SCF Done:  E(RB3LYP) =  -2761.15216476     A.U. after   20 cycles
 SCF Done:  E(RB3LYP) =  -2761.14020680     A.U. after   28 cycles
 SCF Done:  E(RB3LYP) =  -2761.21375155     A.U. after   18 cycles
 SCF Done:  E(RB3LYP) =  -2761.24626953     A.U. after   22 cycles
 SCF Done:  E(RB3LYP) =  -2761.26644563     A.U. after   22 cycles
 SCF Done:  E(RB3LYP) =  -2761.25604623     A.U. after   16 cycles
 SCF Done:  E(RB3LYP) =  -2761.28778246     A.U. after   16 cycles
 SCF Done:  E(RB3LYP) =  -2761.32296008     A.U. after   17 cycles
 SCF Done:  E(RB3LYP) =  -2761.52235696     A.U. after   11 cycles
 SCF Done:  E(RB3LYP) =  -2761.52235752     A.U. after   11 cycles
 SCF Done:  E(RB3LYP) =  -2761.52235812     A.U. after   11 cycles
 SCF Done:  E(RB3LYP) =  -2761.52235883     A.U. after   11 cycles
 SCF Done:  E(RB3LYP) =  -2761.52235957     A.U. after   11 cycles
 SCF Done:  E(RB3LYP) =  -2761.52236059     A.U. after   11 cycles
 SCF Done:  E(RB3LYP) =  -2761.52236166     A.U. after   11 cycles
 SCF Done:  E(RB3LYP) =  -2761.52236259     A.U. after   11 cycles
 SCF Done:  E(RB3LYP) =  -2761.52236329     A.U. after   11 cycles
 SCF Done:  E(RB3LYP) =  -2761.52236346     A.U. after   11 cycles
 Optimization completed.
    -- Stationary point found.

                         Standard orientation:
 ---------------------------------------------------------------------
 Center     Atomic      Atomic             Coordinates (Angstroms)
 Number     Number       Type             X           Y           Z
 ---------------------------------------------------------------------
      1          6           0        0.803019   -0.000089   -0.269685
      2          6           0        1.475220    0.001615   -1.496033
      3          6           0        2.863208    0.001911   -1.568985
      4          6           0        3.596059    0.000516   -0.386799
      5          6           0        2.967552   -0.001097    0.852450
      6          6           0        1.576313   -0.001342    0.895594
      7          6           0       -0.686964    0.000040   -0.234637
      8          6           0       -1.426435    1.191450   -0.225649
      9          6           0       -2.817122    1.212246   -0.208835
     10          6           0       -3.495956    0.000597   -0.200791
     11          6           0       -2.817605   -1.211275   -0.210503
     12          6           0       -1.426899   -1.191063   -0.227298
     13          1           0        0.894290    0.002862   -2.410842
     14          1           0        3.367911    0.003217   -2.525948
     15          1           0        3.543712   -0.002164    1.767172
     16          1           0       -3.352498    2.150933   -0.200987
     17          1           0       -3.353314   -2.149793   -0.204005
     18         17           0       -0.591576   -2.731909   -0.235937
     19         17           0        0.800386   -0.003401    2.468532
     20         17           0       -5.247942    0.000922   -0.179370
     21         17           0        5.349430    0.000809   -0.453045
     22         17           0       -0.590442    2.732044   -0.231848
 ---------------------------------------------------------------------

 The electronic state is 1-A.
 Alpha  occ. eigenvalues -- -101.57570-101.57428-101.57427-101.56923-101.56897
 Alpha  occ. eigenvalues --  -10.27300 -10.27300 -10.27091 -10.26448 -10.26205
 Alpha  occ. eigenvalues --  -10.23364 -10.22442 -10.21765 -10.21764 -10.21226
 Alpha  occ. eigenvalues --  -10.21171 -10.20774  -9.49023  -9.48897  -9.48896
 Alpha  occ. eigenvalues --   -9.48394  -9.48352  -7.25497  -7.25371  -7.25371
 Alpha  occ. eigenvalues --   -7.24860  -7.24819  -7.24501  -7.24461  -7.24379
 Alpha  occ. eigenvalues --   -7.24379  -7.24324  -7.24324  -7.23875  -7.23834
 Alpha  occ. eigenvalues --   -7.23831  -7.23795  -0.94741  -0.92610  -0.89954
 Alpha  occ. eigenvalues --   -0.89746  -0.88896  -0.84852  -0.83404  -0.79716
 Alpha  occ. eigenvalues --   -0.76988  -0.76618  -0.73811  -0.65024  -0.64020
 Alpha  occ. eigenvalues --   -0.63722  -0.61149  -0.56127  -0.53413  -0.52127
 Alpha  occ. eigenvalues --   -0.51600  -0.49151  -0.48342  -0.46584  -0.46171
 Alpha  occ. eigenvalues --   -0.45916  -0.44381  -0.43241  -0.42737  -0.41120
 Alpha  occ. eigenvalues --   -0.39946  -0.39609  -0.38787  -0.38258  -0.37611
 Alpha  occ. eigenvalues --   -0.34455  -0.34158  -0.33852  -0.33599  -0.32936
 Alpha  occ. eigenvalues --   -0.32872  -0.32690  -0.27986  -0.27508  -0.27468
 Alpha  occ. eigenvalues --   -0.26679
 Alpha virt. eigenvalues --   -0.05771  -0.05449  -0.04817  -0.04427  -0.03262
 Alpha virt. eigenvalues --   -0.01471  -0.00559   0.00701   0.01307   0.01391
 Alpha virt. eigenvalues --    0.01640   0.01798   0.02105   0.03346   0.04172

 Mulliken charges:
               1
     1  C    0.193374
     2  C   -0.601756
     3  C   -0.742310
     4  C    0.915813
     5  C   -0.378499
     6  C   -1.207759
     7  C    0.176849
     8  C   -0.500478
     9  C   -0.419145
    10  C    0.729512
    11  C   -0.418931
    12  C   -0.500466
    13  H    0.135551
    14  H    0.154159
    15  H    0.170033
    16  H    0.169548
    17  H    0.169544
    18  Cl   0.376243
    19  Cl   0.367857
    20  Cl   0.428059
    21  Cl   0.406403
    22  Cl   0.376399
 Sum of Mulliken charges =  -0.00000

 Dipole moment (field-independent basis, Debye):
    X=             -0.5519    Y=              0.0014    Z=             -1.2483  Tot=              1.3648
 Quadrupole moment (field-independent basis, Debye-Ang):
   XX=           -135.3578   YY=           -133.6008   ZZ=           -129.4788
   XY=              0.0013   XZ=             -0.5159   YZ=             -0.0064

 Normal termination of Gaussian 16 at Thu Apr 14 03:57:44 2022.
