 Gaussian 16, Revision B.01,
 Gaussian 16:  EM64L-G16RevB.01 20-Dec-2017

 --------------------------------
 # opt b3lyp/6-311+g(d,p) scf=xqc
 --------------------------------

 -------------------
 Title Card Required
 -------------------
 Symbolic Z-matrix:
 Charge =  0 Multiplicity = 1

 SCF Done:  E(RB3LYP) =  -2759.89862336     A.U. after   23 cycles
 SCF Done:  E(RB3LYP) =  -2760.40822780     A.U. after   17 cycles
 SCF Done:  E(RB3LYP) =  -2760.94292164     A.U. after   18 cycles
 SCF Done:  E(RB3LYP) =  -2761.21212805     A.U. after   20 cycles
 SCF Done:  E(RB3LYP) =  -2761.22493463     A.U. after   23 cycles
 SCF Done:  E(RB3LYP) =  -2761.25485321     A.U. after   18 cycles
 SCF Done:  E(RB3LYP) =  -2761.26465579     A.U. after   17 cycles
 SCF Done:  E(RB3LYP) =  -2761.27216336     A.U. after   18 cycles
 SCF Done:  E(RB3LYP) =  -2761.28161667     A.U. after   19 cycles
 SCF Done:  E(RB3LYP) =  -2761.29458916     A.U. after   19 cycles
 SCF Done:  E(RB3LYP) =  -2761.51532995     A.U. after   14 cycles
 SCF Done:  E(RB3LYP) =  -2761.51559552     A.U. after   13 cycles
 SCF Done:  E(RB3LYP) =  -2761.51579884     A.U. after   14 cycles
 SCF Done:  E(RB3LYP) =  -2761.51597164     A.U. after   14 cycles
 SCF Done:  E(RB3LYP) =  -2761.51615622     A.U. after   15 cycles
 SCF Done:  E(RB3LYP) =  -2761.51610704     A.U. after   13 cycles
 SCF Done:  E(RB3LYP) =  -2761.51611241     A.U. after   13 cycles
 SCF Done:  E(RB3LYP) =  -2761.51611228     A.U. after   12 cycles
 SCF Done:  E(RB3LYP) =  -2761.51611345     A.U. after   11 cycles
 SCF Done:  E(RB3LYP) =  -2761.51611362     A.U. after   10 cycles
 Optimization completed.
    -- Stationary point found.

                         Standard orientation:
 ---------------------------------------------------------------------
 Center     Atomic      Atomic             Coordinates (Angstroms)
 Number     Number       Type             X           Y           Z
 ---------------------------------------------------------------------
      1          6           0       -1.324317    0.103541    0.354761
      2          6           0       -2.161304   -0.992679    0.119204
      3          6           0       -3.534485   -0.816337    0.001559
      4          6           0       -4.107652    0.445424    0.116651
      5          6           0       -3.285959    1.541701    0.355061
      6          6           0       -1.909756    1.369171    0.473447
      7          6           0        0.144439   -0.117762    0.505357
      8          6           0        0.658154   -0.508873    1.743184
      9          6           0        2.015028   -0.738643    1.919359
     10          6           0        2.888197   -0.581335    0.848701
     11          6           0        2.407578   -0.194164   -0.408686
     12          6           0        1.031091    0.034064   -0.568189
     13          1           0       -1.731128   -1.981086    0.020923
     14          1           0       -5.178337    0.572184    0.022993
     15          1           0       -3.712413    2.531809    0.451147
     16          1           0       -0.018908   -0.626518    2.580466
     17          1           0        2.405480   -1.038250    2.882839
     18         17           0        0.404452    0.507921   -2.126213
     19         17           0       -0.912535    2.779469    0.782785
     20         17           0        3.497118   -0.004625   -1.748225
     21         17           0        4.588466   -0.879483    1.109956
     22         17           0       -4.559312   -2.210504   -0.295997
 ---------------------------------------------------------------------

 The electronic state is 1-A.
 Alpha  occ. eigenvalues -- -101.57427-101.57363-101.57278-101.56910-101.56871
 Alpha  occ. eigenvalues --  -10.27394 -10.27269 -10.27028 -10.26162 -10.26003
 Alpha  occ. eigenvalues --  -10.22870 -10.22841 -10.21380 -10.21365 -10.21316
 Alpha  occ. eigenvalues --  -10.21312 -10.21247  -9.48892  -9.48822  -9.48754
 Alpha  occ. eigenvalues --   -9.48364  -9.48340  -7.25392  -7.25308  -7.25240
 Alpha  occ. eigenvalues --   -7.24830  -7.24806  -7.24374  -7.24303  -7.24291
 Alpha  occ. eigenvalues --   -7.24241  -7.24238  -7.24164  -7.23844  -7.23822
 Alpha  occ. eigenvalues --   -7.23810  -7.23778  -0.95052  -0.92814  -0.89966
 Alpha  occ. eigenvalues --   -0.89245  -0.87574  -0.85337  -0.84059  -0.80517
 Alpha  occ. eigenvalues --   -0.76015  -0.75758  -0.73738  -0.66387  -0.63924
 Alpha  occ. eigenvalues --   -0.63601  -0.60780  -0.54873  -0.53132  -0.52632
 Alpha  occ. eigenvalues --   -0.51694  -0.49457  -0.48002  -0.46452  -0.46249
 Alpha  occ. eigenvalues --   -0.45665  -0.44785  -0.43220  -0.42561  -0.40874
 Alpha  occ. eigenvalues --   -0.40161  -0.39514  -0.38592  -0.38044  -0.36187
 Alpha  occ. eigenvalues --   -0.35003  -0.34275  -0.33909  -0.33367  -0.33164
 Alpha  occ. eigenvalues --   -0.33012  -0.31721  -0.29124  -0.27196  -0.27080
 Alpha  occ. eigenvalues --   -0.26153
 Alpha virt. eigenvalues --   -0.05755  -0.05473  -0.04792  -0.04223  -0.03629
 Alpha virt. eigenvalues --   -0.01036  -0.00509   0.00448   0.00948   0.01504
 Alpha virt. eigenvalues --    0.01991   0.02244   0.02593   0.03281   0.04067

 Mulliken charges:
               1
     1  C   -0.125391
     2  C   -0.740107
     3  C    0.872076
     4  C   -0.574218
     5  C   -0.325339
     6  C   -0.461833
     7  C    0.398901
     8  C   -0.458420
     9  C   -0.953598
    10  C    0.275948
    11  C    0.280652
    12  C   -1.329315
    13  H    0.146145
    14  H    0.155757
    15  H    0.155073
    16  H    0.135621
    17  H    0.158252
    18  Cl   0.518532
    19  Cl   0.375687
    20  Cl   0.589294
    21  Cl   0.499596
    22  Cl   0.406689
 Sum of Mulliken charges =  -0.00000

 Dipole moment (field-independent basis, Debye):
    X=             -1.6341    Y=             -0.0735    Z=              1.8381  Tot=              2.4605
 Quadrupole moment (field-independent basis, Debye-Ang):
   XX=           -132.2057   YY=           -133.4705   ZZ=           -129.8313
   XY=             -6.0095   XZ=              1.3215   YZ=             -2.0510

 Normal termination of Gaussian 16 at Wed Mar 16 05:54:59 2022.
