 Gaussian 16, Revision B.01,
 Gaussian 16:  EM64L-G16RevB.01 20-Dec-2017

 --------------------------------
 # opt b3lyp/6-311+g(d,p) scf=xqc
 --------------------------------

 -------------------
 Title Card Required
 -------------------
 Symbolic Z-matrix:
 Charge =  0 Multiplicity = 1

 SCF Done:  E(RB3LYP) =  -3219.51836970     A.U. after   24 cycles
 SCF Done:  E(RB3LYP) =  -3220.02836098     A.U. after   17 cycles
 SCF Done:  E(RB3LYP) =  -3220.56338196     A.U. after   18 cycles
 SCF Done:  E(RB3LYP) =  -3220.83056800     A.U. after   20 cycles
 SCF Done:  E(RB3LYP) =  -3220.84089269     A.U. after   23 cycles
 SCF Done:  E(RB3LYP) =  -3220.87334601     A.U. after   19 cycles
 SCF Done:  E(RB3LYP) =  -3220.88276874     A.U. after   18 cycles
 SCF Done:  E(RB3LYP) =  -3220.88867295     A.U. after   18 cycles
 SCF Done:  E(RB3LYP) =  -3220.89569744     A.U. after   19 cycles
 SCF Done:  E(RB3LYP) =  -3220.90654029     A.U. after   19 cycles
 SCF Done:  E(RB3LYP) =  -3221.13595367     A.U. after   14 cycles
 SCF Done:  E(RB3LYP) =  -3221.13618210     A.U. after   14 cycles
 SCF Done:  E(RB3LYP) =  -3221.13632910     A.U. after   15 cycles
 SCF Done:  E(RB3LYP) =  -3221.13644483     A.U. after   13 cycles
 SCF Done:  E(RB3LYP) =  -3221.13649064     A.U. after   13 cycles
 SCF Done:  E(RB3LYP) =  -3221.13649847     A.U. after   13 cycles
 SCF Done:  E(RB3LYP) =  -3221.13649955     A.U. after   12 cycles
 SCF Done:  E(RB3LYP) =  -3221.13649975     A.U. after   11 cycles
 SCF Done:  E(RB3LYP) =  -3221.13649978     A.U. after   11 cycles
 SCF Done:  E(RB3LYP) =  -3221.13649977     A.U. after   11 cycles
 Optimization completed.
    -- Stationary point found.

                         Standard orientation:
 ---------------------------------------------------------------------
 Center     Atomic      Atomic             Coordinates (Angstroms)
 Number     Number       Type             X           Y           Z
 ---------------------------------------------------------------------
      1          6           0        0.611658    0.147669   -0.130068
      2          6           0        1.424585    0.507017    0.946116
      3          6           0        2.812832    0.448139    0.863310
      4          6           0        3.414084    0.022051   -0.324290
      5          6           0        2.620541   -0.336019   -1.410533
      6          6           0        1.236244   -0.271338   -1.310140
      7          6           0       -0.872108    0.250490    0.001638
      8          6           0       -1.483608    1.488262   -0.205834
      9          6           0       -2.861278    1.612623   -0.076929
     10          6           0       -3.652060    0.522861    0.259363
     11          6           0       -3.046315   -0.712687    0.471192
     12          6           0       -1.659510   -0.858178    0.346594
     13          1           0        0.968128    0.832580    1.872090
     14          1           0        3.085351   -0.661565   -2.330841
     15          1           0       -0.881424    2.345786   -0.475301
     16          1           0       -4.723918    0.622887    0.358540
     17         17           0       -0.901205   -2.403386    0.622732
     18         17           0        0.281704   -0.722969   -2.707637
     19         17           0       -4.064283   -2.063412    0.899013
     20         17           0        5.146874   -0.072906   -0.489637
     21         17           0       -3.617623    3.170970   -0.342786
     22         17           0        3.759325    0.911408    2.253198
 ---------------------------------------------------------------------

 The electronic state is 1-A.
 Alpha  occ. eigenvalues -- -101.57822-101.57769-101.57703-101.57663-101.57610
 Alpha  occ. eigenvalues -- -101.57591 -10.27600 -10.27549 -10.27397 -10.27222
 Alpha  occ. eigenvalues --  -10.27161 -10.26959 -10.23815 -10.23493 -10.22335
 Alpha  occ. eigenvalues --  -10.22317 -10.22274 -10.21961  -9.49277  -9.49228
 Alpha  occ. eigenvalues --   -9.49158  -9.49134  -9.49063  -9.49059  -7.25765
 Alpha  occ. eigenvalues --   -7.25716  -7.25645  -7.25620  -7.25536  -7.25532
 Alpha  occ. eigenvalues --   -7.24756  -7.24707  -7.24696  -7.24645  -7.24635
 Alpha  occ. eigenvalues --   -7.24614  -7.24580  -7.24547  -7.24539  -7.24537
 Alpha  occ. eigenvalues --   -7.24503  -7.24493  -0.95406  -0.94408  -0.90945
 Alpha  occ. eigenvalues --   -0.90601  -0.88542  -0.88082  -0.85557  -0.84180
 Alpha  occ. eigenvalues --   -0.80249  -0.77035  -0.75168  -0.74328  -0.67335
 Alpha  occ. eigenvalues --   -0.65255  -0.63074  -0.60973  -0.55113  -0.53851
 Alpha  occ. eigenvalues --   -0.53498  -0.53265  -0.50071  -0.48483  -0.46944
 Alpha  occ. eigenvalues --   -0.46703  -0.46668  -0.44978  -0.44919  -0.43582
 Alpha  occ. eigenvalues --   -0.41737  -0.41535  -0.40734  -0.39756  -0.39245
 Alpha  occ. eigenvalues --   -0.36988  -0.36838  -0.35206  -0.34971  -0.33968
 Alpha  occ. eigenvalues --   -0.33901  -0.33658  -0.33452  -0.32938  -0.32736
 Alpha  occ. eigenvalues --   -0.28800  -0.28601  -0.26778  -0.26676
 Alpha virt. eigenvalues --   -0.06443  -0.06225  -0.05369  -0.04884  -0.03512
 Alpha virt. eigenvalues --   -0.02642  -0.00833  -0.00140   0.00086   0.00807
 Alpha virt. eigenvalues --    0.01653   0.01990   0.02266   0.02532   0.03393

 Mulliken charges:
               1
     1  C    0.362998
     2  C   -0.985657
     3  C    0.209764
     4  C    0.009848
     5  C   -0.666273
     6  C   -0.423897
     7  C   -0.441765
     8  C   -0.890485
     9  C    0.787707
    10  C   -1.115912
    11  C    0.541621
    12  C   -0.978607
    13  H    0.152560
    14  H    0.174101
    15  H    0.147711
    16  H    0.173855
    17  Cl   0.617287
    18  Cl   0.397670
    19  Cl   0.463099
    20  Cl   0.503364
    21  Cl   0.427771
    22  Cl   0.533240
 Sum of Mulliken charges =  -0.00000

 Dipole moment (field-independent basis, Debye):
    X=             -0.3992    Y=              0.7981    Z=             -0.1650  Tot=              0.9075
 Quadrupole moment (field-independent basis, Debye-Ang):
   XX=           -146.7963   YY=           -147.4071   ZZ=           -144.7485
   XY=             -1.4868   XZ=             -3.4016   YZ=              1.1262

 Normal termination of Gaussian 16 at Thu Mar 17 11:36:18 2022.
