 Gaussian 16, Revision B.01,
 Gaussian 16:  EM64L-G16RevB.01 20-Dec-2017

 --------------------------------
 # opt b3lyp/6-311+g(d,p) scf=xqc
 --------------------------------

 -------------------
 Title Card Required
 -------------------
 Symbolic Z-matrix:
 Charge =  0 Multiplicity = 1

 SCF Done:  E(RB3LYP) =  -3220.53268286     A.U. after   23 cycles
 SCF Done:  E(RB3LYP) =  -3219.54459601     A.U. after   25 cycles
 SCF Done:  E(RB3LYP) =  -3220.60148564     A.U. after   20 cycles
 SCF Done:  E(RB3LYP) =  -3220.62979873     A.U. after   19 cycles
 SCF Done:  E(RB3LYP) =  -3220.64671138     A.U. after   17 cycles
 SCF Done:  E(RB3LYP) =  -3220.69091147     A.U. after   19 cycles
 SCF Done:  E(RB3LYP) =  -3220.73953801     A.U. after   22 cycles
 SCF Done:  E(RB3LYP) =  -3220.78616367     A.U. after   19 cycles
 SCF Done:  E(RB3LYP) =  -3220.83571271     A.U. after   19 cycles
 SCF Done:  E(RB3LYP) =  -3220.84265597     A.U. after   19 cycles
 SCF Done:  E(RB3LYP) =  -3221.13863067     A.U. after   13 cycles
 SCF Done:  E(RB3LYP) =  -3221.13866453     A.U. after   13 cycles
 SCF Done:  E(RB3LYP) =  -3221.13869127     A.U. after   12 cycles
 SCF Done:  E(RB3LYP) =  -3221.13871442     A.U. after   12 cycles
 SCF Done:  E(RB3LYP) =  -3221.13872883     A.U. after   12 cycles
 SCF Done:  E(RB3LYP) =  -3221.13873399     A.U. after   12 cycles
 SCF Done:  E(RB3LYP) =  -3221.13873389     A.U. after   11 cycles
 SCF Done:  E(RB3LYP) =  -3221.13873801     A.U. after   11 cycles
 SCF Done:  E(RB3LYP) =  -3221.13873521     A.U. after   11 cycles
 SCF Done:  E(RB3LYP) =  -3221.13873538     A.U. after   10 cycles
 Optimization completed.
    -- Stationary point found.

                         Standard orientation:
 ---------------------------------------------------------------------
 Center     Atomic      Atomic             Coordinates (Angstroms)
 Number     Number       Type             X           Y           Z
 ---------------------------------------------------------------------
      1          6           0       -1.013669   -0.002185   -0.078253
      2          6           0       -1.747246   -1.196084   -0.127937
      3          6           0       -3.129389   -1.220427   -0.280833
      4          6           0       -3.804047   -0.010971   -0.388046
      5          6           0       -3.129719    1.202677   -0.346669
      6          6           0       -1.747550    1.187036   -0.192713
      7          6           0        0.469175    0.002279    0.072900
      8          6           0        1.280287   -0.029162   -1.061958
      9          6           0        2.668090   -0.026614   -0.965307
     10          6           0        3.270264    0.008227    0.295785
     11          6           0        2.478022    0.040095    1.439691
     12          6           0        1.093625    0.036987    1.323808
     13          1           0       -3.661834   -2.160244   -0.313840
     14          1           0       -3.662358    2.139194   -0.430732
     15          1           0        0.823169   -0.056342   -2.042695
     16          1           0        2.943503    0.067083    2.415124
     17         17           0        0.136937    0.077848    2.790206
     18         17           0       -0.916325    2.728712   -0.139219
     19         17           0        5.003803    0.013105    0.481461
     20         17           0       -5.544830   -0.016452   -0.580635
     21         17           0        3.614315   -0.067412   -2.430269
     22         17           0       -0.915637   -2.732321    0.009593
 ---------------------------------------------------------------------

 The electronic state is 1-A.
 Alpha  occ. eigenvalues -- -101.57810-101.57753-101.57752-101.57626-101.57476
 Alpha  occ. eigenvalues -- -101.57422 -10.27655 -10.27654 -10.27397 -10.27340
 Alpha  occ. eigenvalues --  -10.26969 -10.26927 -10.23772 -10.23320 -10.22093
 Alpha  occ. eigenvalues --  -10.22072 -10.22065 -10.22064  -9.49263  -9.49222
 Alpha  occ. eigenvalues --   -9.49221  -9.49082  -9.48931  -9.48891  -7.25738
 Alpha  occ. eigenvalues --   -7.25697  -7.25697  -7.25570  -7.25418  -7.25362
 Alpha  occ. eigenvalues --   -7.24741  -7.24703  -7.24702  -7.24700  -7.24649
 Alpha  occ. eigenvalues --   -7.24649  -7.24562  -7.24502  -7.24408  -7.24368
 Alpha  occ. eigenvalues --   -7.24354  -7.24326  -0.95357  -0.94112  -0.90871
 Alpha  occ. eigenvalues --   -0.90086  -0.89813  -0.88048  -0.84778  -0.83693
 Alpha  occ. eigenvalues --   -0.80239  -0.76935  -0.76370  -0.73825  -0.66205
 Alpha  occ. eigenvalues --   -0.64396  -0.64069  -0.61229  -0.55876  -0.53769
 Alpha  occ. eigenvalues --   -0.53517  -0.52443  -0.49670  -0.48763  -0.46901
 Alpha  occ. eigenvalues --   -0.46836  -0.46500  -0.44792  -0.44771  -0.43527
 Alpha  occ. eigenvalues --   -0.41681  -0.41343  -0.40728  -0.39542  -0.38637
 Alpha  occ. eigenvalues --   -0.38560  -0.36749  -0.34881  -0.34599  -0.34471
 Alpha  occ. eigenvalues --   -0.33696  -0.33683  -0.33007  -0.32932  -0.32745
 Alpha  occ. eigenvalues --   -0.28425  -0.27827  -0.27812  -0.26500
 Alpha virt. eigenvalues --   -0.06242  -0.05839  -0.05557  -0.05014  -0.03652
 Alpha virt. eigenvalues --   -0.02654  -0.00722   0.00010   0.00763   0.01074
 Alpha virt. eigenvalues --    0.01299   0.01867   0.01925   0.02470   0.03442

 Mulliken charges:
               1
     1  C    0.183415
     2  C   -0.493833
     3  C   -0.449025
     4  C    0.746801
     5  C   -0.447263
     6  C   -0.494438
     7  C    0.048524
     8  C   -0.830521
     9  C    0.189441
    10  C    0.138044
    11  C   -0.552974
    12  C   -1.319516
    13  H    0.170218
    14  H    0.170209
    15  H    0.152329
    16  H    0.172750
    17  Cl   0.392060
    18  Cl   0.375615
    19  Cl   0.498255
    20  Cl   0.435342
    21  Cl   0.538731
    22  Cl   0.375836
 Sum of Mulliken charges =  -0.00000

 Dipole moment (field-independent basis, Debye):
    X=             -1.1281    Y=             -0.0029    Z=             -0.1064  Tot=              1.1331
 Quadrupole moment (field-independent basis, Debye-Ang):
   XX=           -147.3224   YY=           -144.7961   ZZ=           -144.3983
   XY=              0.1019   XZ=              3.6791   YZ=              0.0122

 Normal termination of Gaussian 16 at Sun Apr  3 15:23:13 2022.
