 Gaussian 16, Revision B.01,
 Gaussian 16:  EM64L-G16RevB.01 20-Dec-2017

 --------------------------------
 # opt b3lyp/6-311+g(d,p) scf=xqc
 --------------------------------

 -------------------
 Title Card Required
 -------------------
 Symbolic Z-matrix:
 Charge =  0 Multiplicity = 1

 SCF Done:  E(RB3LYP) =  -3677.51658380     A.U. after   22 cycles
 SCF Done:  E(RB3LYP) =  -3678.45200185     A.U. after   18 cycles
 SCF Done:  E(RB3LYP) =  -3679.47368843     A.U. after   20 cycles
 SCF Done:  E(RB3LYP) =  -3680.02859817     A.U. after   28 cycles
 SCF Done:  E(RB3LYP) =  -3680.20186089     A.U. after   33 cycles
 SCF Done:  E(RB3LYP) =  -3680.20186089     a.u. after    1 cycles
 SCF Done:  E(RB3LYP) =  -3680.24208891     A.U. after   33 cycles
 SCF Done:  E(RB3LYP) =  -3680.24208891     a.u. after    3 cycles
 SCF Done:  E(RB3LYP) =  -3680.31083508     A.U. after   29 cycles
 SCF Done:  E(RB3LYP) =  -3680.37412031     A.U. after   23 cycles
 SCF Done:  E(RB3LYP) =  -3680.74097000     A.U. after   15 cycles
 SCF Done:  E(RB3LYP) =  -3680.74425780     A.U. after   16 cycles
 SCF Done:  E(RB3LYP) =  -3680.74604614     A.U. after   15 cycles
 SCF Done:  E(RB3LYP) =  -3680.74721040     A.U. after   15 cycles
 SCF Done:  E(RB3LYP) =  -3680.74800614     A.U. after   17 cycles
 SCF Done:  E(RB3LYP) =  -3680.74809292     A.U. after   12 cycles
 SCF Done:  E(RB3LYP) =  -3680.74811897     A.U. after   13 cycles
 SCF Done:  E(RB3LYP) =  -3680.74812299     A.U. after   12 cycles
 SCF Done:  E(RB3LYP) =  -3680.74812415     A.U. after   11 cycles
 SCF Done:  E(RB3LYP) =  -3680.74812452     A.U. after   11 cycles
 Optimization completed.
    -- Stationary point found.

                         Standard orientation:
 ---------------------------------------------------------------------
 Center     Atomic      Atomic             Coordinates (Angstroms)
 Number     Number       Type             X           Y           Z
 ---------------------------------------------------------------------
      1          6           0        1.146260    0.264146   -0.334191
      2          6           0        1.642450    0.868416   -1.493808
      3          6           0        2.996809    0.845881   -1.806040
      4          6           0        3.884397    0.211448   -0.949397
      5          6           0        3.424639   -0.397032    0.214968
      6          6           0        2.060983   -0.370491    0.522785
      7          6           0       -0.308313    0.301700   -0.008867
      8          6           0       -0.855845    1.346726    0.741172
      9          6           0       -2.207578    1.398775    1.048069
     10          6           0       -3.049076    0.388677    0.600087
     11          6           0       -2.548787   -0.677749   -0.156851
     12          6           0       -1.178117   -0.704767   -0.452492
     13          1           0        3.351219    1.321332   -2.710773
     14          1           0        4.941706    0.185442   -1.178796
     15          1           0       -2.606808    2.217098    1.630122
     16         17           0       -0.525170   -2.016058   -1.396172
     17         17           0        1.473035   -1.124450    1.980159
     18         17           0       -3.604790   -1.935734   -0.716691
     19         17           0        4.580010   -1.179510    1.262701
     20         17           0       -4.741088    0.489403    1.006719
     21         17           0        0.170737    2.639756    1.320050
     22         17           0        0.545322    1.680814   -2.591659
 ---------------------------------------------------------------------

 The electronic state is 1-A.
 Alpha  occ. eigenvalues -- -101.58017-101.57953-101.57934-101.57803-101.57726
 Alpha  occ. eigenvalues -- -101.57539-101.57520 -10.28226 -10.27975 -10.27890
 Alpha  occ. eigenvalues --  -10.27709 -10.27545 -10.27065 -10.27048 -10.24171
 Alpha  occ. eigenvalues --  -10.24077 -10.22336 -10.22082 -10.21742  -9.49474
 Alpha  occ. eigenvalues --   -9.49431  -9.49397  -9.49275  -9.49202  -9.48996
 Alpha  occ. eigenvalues --   -9.48992  -7.25967  -7.25922  -7.25902  -7.25753
 Alpha  occ. eigenvalues --   -7.25688  -7.25484  -7.25463  -7.24952  -7.24910
 Alpha  occ. eigenvalues --   -7.24888  -7.24876  -7.24837  -7.24795  -7.24750
 Alpha  occ. eigenvalues --   -7.24704  -7.24682  -7.24614  -7.24474  -7.24470
 Alpha  occ. eigenvalues --   -7.24426  -7.24418  -0.96472  -0.94676  -0.91403
 Alpha  occ. eigenvalues --   -0.90832  -0.90335  -0.88182  -0.87365  -0.84512
 Alpha  occ. eigenvalues --   -0.83954  -0.80622  -0.76169  -0.75141  -0.74345
 Alpha  occ. eigenvalues --   -0.67005  -0.64194  -0.63161  -0.61802  -0.55437
 Alpha  occ. eigenvalues --   -0.55045  -0.53576  -0.52876  -0.49889  -0.48582
 Alpha  occ. eigenvalues --   -0.47146  -0.47077  -0.46564  -0.45989  -0.45034
 Alpha  occ. eigenvalues --   -0.43848  -0.42394  -0.41688  -0.41238  -0.40322
 Alpha  occ. eigenvalues --   -0.39210  -0.38825  -0.36830  -0.35768  -0.35755
 Alpha  occ. eigenvalues --   -0.35032  -0.34613  -0.34105  -0.33821  -0.33546
 Alpha  occ. eigenvalues --   -0.33082  -0.32591  -0.32254  -0.28543  -0.27894
 Alpha  occ. eigenvalues --   -0.26916  -0.26577
 Alpha virt. eigenvalues --   -0.06293  -0.06024  -0.05937  -0.05171  -0.04829
 Alpha virt. eigenvalues --   -0.02966  -0.00553  -0.00180   0.00118   0.00918
 Alpha virt. eigenvalues --    0.01068   0.02156   0.02412   0.02530   0.02732

 Mulliken charges:
               1
     1  C   -0.154657
     2  C   -0.309284
     3  C   -0.336290
     4  C   -0.547514
     5  C    1.235767
     6  C   -1.605758
     7  C   -0.276525
     8  C   -0.533987
     9  C   -0.579982
    10  C    0.051883
    11  C    0.754660
    12  C   -1.716871
    13  H    0.156206
    14  H    0.160096
    15  H    0.172467
    16  Cl   0.559660
    17  Cl   0.535173
    18  Cl   0.607154
    19  Cl   0.489582
    20  Cl   0.536277
    21  Cl   0.387529
    22  Cl   0.414412
 Sum of Mulliken charges =  -0.00000

 Dipole moment (field-independent basis, Debye):
    X=              1.2622    Y=              1.1433    Z=             -0.7571  Tot=              1.8638
 Quadrupole moment (field-independent basis, Debye-Ang):
   XX=           -150.2653   YY=           -157.5809   ZZ=           -155.7204
   XY=              0.2944   XZ=             -8.2878   YZ=              0.5660

 Normal termination of Gaussian 16 at Fri Mar 25 05:20:24 2022.
