 Gaussian 16, Revision B.01,
 Gaussian 16:  EM64L-G16RevB.01 20-Dec-2017

 --------------------------------
 # opt b3lyp/6-311+g(d,p) scf=xqc
 --------------------------------

 -------------------
 Title Card Required
 -------------------
 Symbolic Z-matrix:
 Charge =  0 Multiplicity = 1

 SCF Done:  E(RB3LYP) =  -3220.69287226     A.U. after   24 cycles
 SCF Done:  E(RB3LYP) =  -3220.79166545     A.U. after   18 cycles
 SCF Done:  E(RB3LYP) =  -3220.83619107     A.U. after   19 cycles
 SCF Done:  E(RB3LYP) =  -3219.24935688     A.U. after   31 cycles
 SCF Done:  E(RB3LYP) =  -3220.93626957     A.U. after   16 cycles
 SCF Done:  E(RB3LYP) =  -3220.95775724     A.U. after   16 cycles
 SCF Done:  E(RB3LYP) =  -3220.97665943     A.U. after   14 cycles
 SCF Done:  E(RB3LYP) =  -3221.00216678     A.U. after   14 cycles
 SCF Done:  E(RB3LYP) =  -3221.02683737     A.U. after   14 cycles
 SCF Done:  E(RB3LYP) =  -3221.03852461     A.U. after   14 cycles
 SCF Done:  E(RB3LYP) =  -3221.13404344     A.U. after   12 cycles
 SCF Done:  E(RB3LYP) =  -3221.13406350     A.U. after   12 cycles
 SCF Done:  E(RB3LYP) =  -3221.13410503     A.U. after   13 cycles
 SCF Done:  E(RB3LYP) =  -3221.13412386     A.U. after   12 cycles
 SCF Done:  E(RB3LYP) =  -3221.13414323     A.U. after   12 cycles
 SCF Done:  E(RB3LYP) =  -3221.13417239     A.U. after   13 cycles
 SCF Done:  E(RB3LYP) =  -3221.13418467     A.U. after   12 cycles
 SCF Done:  E(RB3LYP) =  -3221.13419276     A.U. after   12 cycles
 SCF Done:  E(RB3LYP) =  -3221.13419440     A.U. after   11 cycles
 SCF Done:  E(RB3LYP) =  -3221.13419472     A.U. after   10 cycles
 Optimization completed.
    -- Stationary point found.

                         Standard orientation:
 ---------------------------------------------------------------------
 Center     Atomic      Atomic             Coordinates (Angstroms)
 Number     Number       Type             X           Y           Z
 ---------------------------------------------------------------------
      1          6           0        1.069495   -0.000105   -0.338337
      2          6           0        1.804687    1.191564   -0.267654
      3          6           0        3.188677    1.211850   -0.130939
      4          6           0        3.863937    0.000016   -0.062658
      5          6           0        3.188557   -1.211919   -0.129510
      6          6           0        1.804647   -1.191818   -0.266299
      7          6           0       -0.412085   -0.000279   -0.508978
      8          6           0       -0.960143   -0.001502   -1.792112
      9          6           0       -2.333350   -0.001687   -1.985381
     10          6           0       -3.186940   -0.000634   -0.887271
     11          6           0       -2.670591    0.000398    0.414623
     12          6           0       -1.277803    0.000471    0.590893
     13          1           0        3.721594    2.150505   -0.078243
     14          1           0        3.721597   -2.150446   -0.075708
     15          1           0       -0.297644   -0.002351   -2.648961
     16          1           0       -2.752168   -0.002631   -2.982872
     17         17           0       -0.603980    0.001164    2.199873
     18         17           0        0.971744   -2.731760   -0.343931
     19         17           0       -3.735788    0.001508    1.786495
     20         17           0       -4.909064   -0.000838   -1.171831
     21         17           0        5.607099   -0.000053    0.109711
     22         17           0        0.971877    2.731555   -0.346934
 ---------------------------------------------------------------------

 The electronic state is 1-A.
 Alpha  occ. eigenvalues -- -101.57740-101.57658-101.57658-101.57469-101.57426
 Alpha  occ. eigenvalues -- -101.57407 -10.27539 -10.27538 -10.27440 -10.27359
 Alpha  occ. eigenvalues --  -10.27301 -10.27103 -10.23652 -10.23083 -10.21978
 Alpha  occ. eigenvalues --  -10.21977 -10.21443 -10.21380  -9.49193  -9.49128
 Alpha  occ. eigenvalues --   -9.49127  -9.48934  -9.48903  -9.48866  -7.25668
 Alpha  occ. eigenvalues --   -7.25603  -7.25602  -7.25434  -7.25387  -7.25352
 Alpha  occ. eigenvalues --   -7.24671  -7.24630  -7.24609  -7.24608  -7.24556
 Alpha  occ. eigenvalues --   -7.24555  -7.24416  -7.24385  -7.24347  -7.24333
 Alpha  occ. eigenvalues --   -7.24315  -7.24285  -0.95484  -0.94247  -0.90471
 Alpha  occ. eigenvalues --   -0.89985  -0.89617  -0.87549  -0.85320  -0.83631
 Alpha  occ. eigenvalues --   -0.79681  -0.76840  -0.76101  -0.74166  -0.65295
 Alpha  occ. eigenvalues --   -0.64016  -0.63968  -0.61719  -0.55999  -0.53668
 Alpha  occ. eigenvalues --   -0.53279  -0.52295  -0.49444  -0.48520  -0.46806
 Alpha  occ. eigenvalues --   -0.46623  -0.46514  -0.44962  -0.44733  -0.43300
 Alpha  occ. eigenvalues --   -0.41580  -0.41147  -0.40479  -0.39134  -0.38532
 Alpha  occ. eigenvalues --   -0.38160  -0.36332  -0.35083  -0.34554  -0.34389
 Alpha  occ. eigenvalues --   -0.34137  -0.33974  -0.33108  -0.32923  -0.31774
 Alpha  occ. eigenvalues --   -0.27767  -0.27663  -0.27245  -0.27094
 Alpha virt. eigenvalues --   -0.06015  -0.05710  -0.05447  -0.04879  -0.03962
 Alpha virt. eigenvalues --   -0.03058  -0.00790   0.00520   0.01114   0.01200
 Alpha virt. eigenvalues --    0.01565   0.01955   0.02100   0.02548   0.03492

 Mulliken charges:
               1
     1  C    0.011282
     2  C   -0.552335
     3  C   -0.388550
     4  C    0.703462
     5  C   -0.388107
     6  C   -0.552519
     7  C    0.152357
     8  C   -0.482504
     9  C   -1.081202
    10  C    0.297146
    11  C    0.462009
    12  C   -1.586634
    13  H    0.169884
    14  H    0.169881
    15  H    0.136524
    16  H    0.158547
    17  Cl   0.523506
    18  Cl   0.363001
    19  Cl   0.588547
    20  Cl   0.499980
    21  Cl   0.432830
    22  Cl   0.362894
 Sum of Mulliken charges =  -0.00000

 Dipole moment (field-independent basis, Debye):
    X=              1.3345    Y=             -0.0020    Z=             -1.8757  Tot=              2.3019
 Quadrupole moment (field-independent basis, Debye-Ang):
   XX=           -148.0945   YY=           -144.9866   ZZ=           -140.7397
   XY=              0.0026   XZ=              2.5404   YZ=              0.0047

 Normal termination of Gaussian 16 at Thu Apr  7 03:24:28 2022.
