 Gaussian 16, Revision B.01,
 Gaussian 16:  EM64L-G16RevB.01 20-Dec-2017

 --------------------------------
 # opt b3lyp/6-311+g(d,p) scf=xqc
 --------------------------------

 -------------------
 Title Card Required
 -------------------
 Symbolic Z-matrix:
 Charge =  0 Multiplicity = 1

 SCF Done:  E(RB3LYP) =  -2759.90011195     A.U. after   20 cycles
 SCF Done:  E(RB3LYP) =  -2760.40997410     A.U. after   17 cycles
 SCF Done:  E(RB3LYP) =  -2760.94515648     A.U. after   18 cycles
 SCF Done:  E(RB3LYP) =  -2761.21260924     A.U. after   20 cycles
 SCF Done:  E(RB3LYP) =  -2761.22257091     A.U. after   23 cycles
 SCF Done:  E(RB3LYP) =  -2761.25575598     A.U. after   18 cycles
 SCF Done:  E(RB3LYP) =  -2761.26509701     A.U. after   18 cycles
 SCF Done:  E(RB3LYP) =  -2761.27133408     A.U. after   18 cycles
 SCF Done:  E(RB3LYP) =  -2761.27852715     A.U. after   18 cycles
 SCF Done:  E(RB3LYP) =  -2761.29032616     A.U. after   19 cycles
 SCF Done:  E(RB3LYP) =  -2761.51943501     A.U. after   15 cycles
 SCF Done:  E(RB3LYP) =  -2761.51965783     A.U. after   13 cycles
 SCF Done:  E(RB3LYP) =  -2761.51983302     A.U. after   13 cycles
 SCF Done:  E(RB3LYP) =  -2761.51992570     A.U. after   13 cycles
 SCF Done:  E(RB3LYP) =  -2761.52001325     A.U. after   14 cycles
 SCF Done:  E(RB3LYP) =  -2761.52009858     A.U. after   14 cycles
 SCF Done:  E(RB3LYP) =  -2761.52017495     A.U. after   14 cycles
 SCF Done:  E(RB3LYP) =  -2761.52018931     A.U. after   14 cycles
 SCF Done:  E(RB3LYP) =  -2761.52019547     A.U. after   13 cycles
 SCF Done:  E(RB3LYP) =  -2761.52019560     A.U. after   11 cycles
 Optimization completed.
    -- Stationary point found.

                         Standard orientation:
 ---------------------------------------------------------------------
 Center     Atomic      Atomic             Coordinates (Angstroms)
 Number     Number       Type             X           Y           Z
 ---------------------------------------------------------------------
      1          6           0        1.114152    0.135842    0.227510
      2          6           0        1.978143    0.469097   -0.821041
      3          6           0        3.354656    0.395185   -0.646763
      4          6           0        3.902935   -0.005886    0.566729
      5          6           0        3.053007   -0.334998    1.616967
      6          6           0        1.673337   -0.263185    1.446595
      7          6           0       -0.361171    0.246697    0.021777
      8          6           0       -0.971685    1.492652    0.176557
      9          6           0       -2.340103    1.625310   -0.022287
     10          6           0       -3.123136    0.536180   -0.377948
     11          6           0       -2.518093   -0.707426   -0.537764
     12          6           0       -1.140551   -0.861664   -0.341733
     13          1           0        1.567701    0.778147   -1.773750
     14          1           0        4.976505   -0.059907    0.692108
     15          1           0        3.459792   -0.646060    2.570481
     16          1           0       -0.375816    2.350131    0.459783
     17          1           0       -4.187851    0.642840   -0.531859
     18         17           0       -0.383698   -2.417955   -0.552159
     19         17           0        0.638775   -0.677888    2.801320
     20         17           0       -3.525895   -2.057716   -0.992042
     21         17           0       -3.095424    3.194500    0.178379
     22         17           0        4.415107    0.816001   -1.980696
 ---------------------------------------------------------------------

 The electronic state is 1-A.
 Alpha  occ. eigenvalues -- -101.57516-101.57360-101.57348-101.56972-101.56967
 Alpha  occ. eigenvalues --  -10.27307 -10.27076 -10.26667 -10.26284 -10.26095
 Alpha  occ. eigenvalues --  -10.23447 -10.23010 -10.21980 -10.21633 -10.21488
 Alpha  occ. eigenvalues --  -10.21404 -10.21337  -9.48974  -9.48819  -9.48813
 Alpha  occ. eigenvalues --   -9.48437  -9.48426  -7.25462  -7.25305  -7.25286
 Alpha  occ. eigenvalues --   -7.24904  -7.24893  -7.24454  -7.24393  -7.24300
 Alpha  occ. eigenvalues --   -7.24290  -7.24255  -7.24232  -7.23918  -7.23905
 Alpha  occ. eigenvalues --   -7.23875  -7.23871  -0.94825  -0.92766  -0.90340
 Alpha  occ. eigenvalues --   -0.89511  -0.88008  -0.85074  -0.83944  -0.80735
 Alpha  occ. eigenvalues --   -0.76969  -0.74713  -0.74071  -0.67609  -0.64120
 Alpha  occ. eigenvalues --   -0.62797  -0.60750  -0.54682  -0.53377  -0.53276
 Alpha  occ. eigenvalues --   -0.51824  -0.49848  -0.47917  -0.46490  -0.46364
 Alpha  occ. eigenvalues --   -0.45768  -0.44551  -0.43263  -0.42652  -0.41170
 Alpha  occ. eigenvalues --   -0.40180  -0.39741  -0.39338  -0.38331  -0.36546
 Alpha  occ. eigenvalues --   -0.34842  -0.33752  -0.33635  -0.33313  -0.33133
 Alpha  occ. eigenvalues --   -0.33022  -0.32586  -0.29253  -0.28363  -0.26456
 Alpha  occ. eigenvalues --   -0.26250
 Alpha virt. eigenvalues --   -0.05895  -0.05764  -0.04870  -0.04276  -0.02987
 Alpha virt. eigenvalues --   -0.00993  -0.00412   0.00220   0.00471   0.00929
 Alpha virt. eigenvalues --    0.01891   0.02226   0.02576   0.03285   0.03883

 Mulliken charges:
               1
     1  C    0.368428
     2  C   -0.579274
     3  C    0.832819
     4  C   -0.586204
     5  C   -0.942315
     6  C   -0.315087
     7  C    0.003822
     8  C   -1.045622
     9  C    0.847889
    10  C   -1.024257
    11  C    0.499298
    12  C   -1.112710
    13  H    0.147195
    14  H    0.156676
    15  H    0.155979
    16  H    0.148056
    17  H    0.173213
    18  Cl   0.552781
    19  Cl   0.411372
    20  Cl   0.470379
    21  Cl   0.422065
    22  Cl   0.415496
 Sum of Mulliken charges =  -0.00000

 Dipole moment (field-independent basis, Debye):
    X=              0.9719    Y=              0.6809    Z=              0.4861  Tot=              1.2824
 Quadrupole moment (field-independent basis, Debye-Ang):
   XX=           -126.5549   YY=           -136.2694   ZZ=           -133.7665
   XY=             -1.6892   XZ=              6.2116   YZ=             -0.8205

 Normal termination of Gaussian 16 at Wed Mar 16 17:02:51 2022.
