 Gaussian 16, Revision B.01,
 Gaussian 16:  EM64L-G16RevB.01 20-Dec-2017

 --------------------------------
 # opt b3lyp/6-311+g(d,p) scf=xqc
 --------------------------------

 -------------------
 Title Card Required
 -------------------
 Symbolic Z-matrix:
 Charge =  0 Multiplicity = 1

 SCF Done:  E(RB3LYP) =  -3220.54268340     A.U. after   25 cycles
 SCF Done:  E(RB3LYP) =  -3219.89243336     A.U. after   24 cycles
 SCF Done:  E(RB3LYP) =  -3220.61603387     A.U. after   19 cycles
 SCF Done:  E(RB3LYP) =  -3220.66888109     A.U. after   18 cycles
 SCF Done:  E(RB3LYP) =  -3220.76754881     A.U. after   18 cycles
 SCF Done:  E(RB3LYP) =  -3220.80792397     A.U. after   17 cycles
 SCF Done:  E(RB3LYP) =  -3220.87105890     A.U. after   19 cycles
 SCF Done:  E(RB3LYP) =  -3220.91108637     A.U. after   18 cycles
 SCF Done:  E(RB3LYP) =  -3220.93990836     A.U. after   18 cycles
 SCF Done:  E(RB3LYP) =  -3220.98992414     A.U. after   17 cycles
 SCF Done:  E(RB3LYP) =  -3221.13338675     A.U. after   14 cycles
 SCF Done:  E(RB3LYP) =  -3221.13343401     A.U. after   13 cycles
 SCF Done:  E(RB3LYP) =  -3221.13349271     A.U. after   14 cycles
 SCF Done:  E(RB3LYP) =  -3221.13357811     A.U. after   13 cycles
 SCF Done:  E(RB3LYP) =  -3221.13360568     A.U. after   13 cycles
 SCF Done:  E(RB3LYP) =  -3221.13361901     A.U. after   12 cycles
 SCF Done:  E(RB3LYP) =  -3221.13362501     A.U. after   12 cycles
 SCF Done:  E(RB3LYP) =  -3221.13362622     A.U. after   11 cycles
 SCF Done:  E(RB3LYP) =  -3221.13362648     A.U. after   11 cycles
 SCF Done:  E(RB3LYP) =  -3221.13362660     A.U. after   10 cycles
 Optimization completed.
    -- Stationary point found.

                         Standard orientation:
 ---------------------------------------------------------------------
 Center     Atomic      Atomic             Coordinates (Angstroms)
 Number     Number       Type             X           Y           Z
 ---------------------------------------------------------------------
      1          6           0        1.126569    0.000025   -0.189478
      2          6           0        1.988891   -0.000806    0.910821
      3          6           0        3.364427   -0.000429    0.720004
      4          6           0        3.910931    0.000743   -0.559272
      5          6           0        3.060484    0.001388   -1.659194
      6          6           0        1.681314    0.000982   -1.472777
      7          6           0       -0.349873   -0.000203    0.035278
      8          6           0       -1.053129    1.208382    0.150676
      9          6           0       -2.433912    1.203869    0.373519
     10          6           0       -3.117297   -0.000005    0.483434
     11          6           0       -2.434160   -1.203987    0.372727
     12          6           0       -1.053484   -1.208668    0.149947
     13          1           0        1.579885   -0.001820    1.912927
     14          1           0        4.984474    0.001017   -0.696089
     15          1           0        3.466042    0.002108   -2.662609
     16          1           0       -4.184597   -0.000024    0.655574
     17         17           0       -0.192555   -2.716407    0.006471
     18         17           0        0.640783    0.001039   -2.884387
     19         17           0       -3.341572   -2.685388    0.519925
     20         17           0       -3.340925    2.685321    0.521964
     21         17           0        4.427178   -0.001428    2.116682
     22         17           0       -0.192342    2.716331    0.007349
 ---------------------------------------------------------------------

 The electronic state is 1-A.
 Alpha  occ. eigenvalues -- -101.57933-101.57933-101.57835-101.57835-101.57034
 Alpha  occ. eigenvalues -- -101.56917 -10.27840 -10.27839 -10.27650 -10.27649
 Alpha  occ. eigenvalues --  -10.26300 -10.26056 -10.24395 -10.23159 -10.22686
 Alpha  occ. eigenvalues --  -10.21500 -10.21382 -10.21324  -9.49390  -9.49389
 Alpha  occ. eigenvalues --   -9.49309  -9.49308  -9.48505  -9.48372  -7.25882
 Alpha  occ. eigenvalues --   -7.25882  -7.25799  -7.25799  -7.24970  -7.24866
 Alpha  occ. eigenvalues --   -7.24866  -7.24839  -7.24807  -7.24807  -7.24789
 Alpha  occ. eigenvalues --   -7.24789  -7.24716  -7.24716  -7.23984  -7.23945
 Alpha  occ. eigenvalues --   -7.23850  -7.23817  -0.96122  -0.92898  -0.92125
 Alpha  occ. eigenvalues --   -0.89713  -0.88881  -0.87803  -0.84625  -0.83997
 Alpha  occ. eigenvalues --   -0.80885  -0.76741  -0.74301  -0.74226  -0.68003
 Alpha  occ. eigenvalues --   -0.64314  -0.62469  -0.61259  -0.55006  -0.54700
 Alpha  occ. eigenvalues --   -0.53239  -0.51973  -0.50056  -0.48211  -0.47044
 Alpha  occ. eigenvalues --   -0.46746  -0.45861  -0.45658  -0.43715  -0.43507
 Alpha  occ. eigenvalues --   -0.42085  -0.40926  -0.40287  -0.40201  -0.38372
 Alpha  occ. eigenvalues --   -0.37626  -0.36190  -0.35652  -0.34732  -0.33604
 Alpha  occ. eigenvalues --   -0.33494  -0.33300  -0.33118  -0.32937  -0.32740
 Alpha  occ. eigenvalues --   -0.29044  -0.28344  -0.26570  -0.26225
 Alpha virt. eigenvalues --   -0.06354  -0.05952  -0.05260  -0.04543  -0.04270
 Alpha virt. eigenvalues --   -0.01000  -0.00834  -0.00354   0.00444   0.00720
 Alpha virt. eigenvalues --    0.01309   0.02037   0.02681   0.03076   0.03123

 Mulliken charges:
               1
     1  C   -0.420662
     2  C   -0.412798
     3  C    0.631868
     4  C   -0.534260
     5  C   -0.653404
     6  C   -0.430119
     7  C   -0.132846
     8  C   -0.996191
     9  C    0.543179
    10  C   -0.739825
    11  C    0.542377
    12  C   -0.994769
    13  H    0.145177
    14  H    0.156385
    15  H    0.154840
    16  H    0.175326
    17  Cl   0.565564
    18  Cl   0.398121
    19  Cl   0.502410
    20  Cl   0.502453
    21  Cl   0.432130
    22  Cl   0.565045
 Sum of Mulliken charges =  -0.00000

 Dipole moment (field-independent basis, Debye):
    X=              0.3934    Y=              0.0005    Z=             -0.2434  Tot=              0.4626
 Quadrupole moment (field-independent basis, Debye-Ang):
   XX=           -135.7498   YY=           -149.7538   ZZ=           -144.8234
   XY=              0.0049   XZ=             -6.8129   YZ=             -0.0040

 Normal termination of Gaussian 16 at Sun Apr  3 13:29:24 2022.
