 Gaussian 16, Revision B.01,
 Gaussian 16:  EM64L-G16RevB.01 20-Dec-2017

 --------------------------------
 # opt b3lyp/6-311+g(d,p) scf=xqc
 --------------------------------

 -------------------
 Title Card Required
 -------------------
 Symbolic Z-matrix:
 Charge =  0 Multiplicity = 1

 SCF Done:  E(RB3LYP) =  -3221.06917497     A.U. after   16 cycles
 SCF Done:  E(RB3LYP) =  -3221.10561110     A.U. after   17 cycles
 SCF Done:  E(RB3LYP) =  -3221.11285956     A.U. after   17 cycles
 SCF Done:  E(RB3LYP) =  -3221.11605357     A.U. after   13 cycles
 SCF Done:  E(RB3LYP) =  -3221.11623208     A.U. after   13 cycles
 SCF Done:  E(RB3LYP) =  -3221.11625539     A.U. after   12 cycles
 SCF Done:  E(RB3LYP) =  -3221.11626096     A.U. after   11 cycles
 SCF Done:  E(RB3LYP) =  -3221.11626056     A.U. after   10 cycles
 SCF Done:  E(RB3LYP) =  -3221.11934140     A.U. after   18 cycles
 SCF Done:  E(RB3LYP) =  -3221.12440214     A.U. after   17 cycles
 SCF Done:  E(RB3LYP) =  -3221.12796550     A.U. after   17 cycles
 SCF Done:  E(RB3LYP) =  -3221.12904575     A.U. after   15 cycles
 SCF Done:  E(RB3LYP) =  -3221.12928737     A.U. after   14 cycles
 SCF Done:  E(RB3LYP) =  -3221.12944807     A.U. after   14 cycles
 SCF Done:  E(RB3LYP) =  -3221.12948252     A.U. after   13 cycles
 SCF Done:  E(RB3LYP) =  -3221.12949346     A.U. after   13 cycles
 SCF Done:  E(RB3LYP) =  -3221.12949509     A.U. after   11 cycles
 Optimization completed.
    -- Stationary point found.

                         Standard orientation:
 ---------------------------------------------------------------------
 Center     Atomic      Atomic             Coordinates (Angstroms)
 Number     Number       Type             X           Y           Z
 ---------------------------------------------------------------------
      1          6           0        1.109955    0.360404    0.265816
      2          6           0        1.689976    1.150371    1.263757
      3          6           0        3.071285    1.271358    1.355965
      4          6           0        3.897752    0.612790    0.448693
      5          6           0        3.326256   -0.173618   -0.557220
      6          6           0        1.942493   -0.297164   -0.642335
      7          6           0       -0.373334    0.274132    0.148192
      8          6           0       -1.090735    1.449021   -0.082154
      9          6           0       -2.473490    1.444152   -0.202795
     10          6           0       -3.188624    0.247279   -0.095881
     11          6           0       -2.485841   -0.945135    0.144635
     12          6           0       -1.088419   -0.927412    0.268182
     13          1           0        1.061113    1.661800    1.982753
     14          1           0        3.519672    1.875085    2.134458
     15          1           0        1.521880   -0.906248   -1.431499
     16          1           0       -0.557479    2.384360   -0.188365
     17         17           0       -0.238126   -2.410160    0.624016
     18         17           0       -3.358025   -2.439048    0.300431
     19         17           0        4.313484   -1.010800   -1.729544
     20         17           0       -4.916431    0.237177   -0.255017
     21         17           0        5.627321    0.792183    0.596775
     22         17           0       -3.285213    2.959350   -0.500571
 ---------------------------------------------------------------------

 The electronic state is 1-A.
 Alpha  occ. eigenvalues -- -101.58207-101.58150-101.58069-101.57949-101.57294
 Alpha  occ. eigenvalues -- -101.57230 -10.28448 -10.28309 -10.27951 -10.27742
 Alpha  occ. eigenvalues --  -10.26799 -10.26743 -10.23847 -10.22620 -10.22357
 Alpha  occ. eigenvalues --  -10.21563 -10.21460 -10.21205  -9.49671  -9.49618
 Alpha  occ. eigenvalues --   -9.49524  -9.49428  -9.48751  -9.48688  -7.26175
 Alpha  occ. eigenvalues --   -7.26123  -7.26015  -7.25917  -7.25233  -7.25171
 Alpha  occ. eigenvalues --   -7.25152  -7.25101  -7.25065  -7.25011  -7.25002
 Alpha  occ. eigenvalues --   -7.24942  -7.24911  -7.24833  -7.24234  -7.24174
 Alpha  occ. eigenvalues --   -7.24169  -7.24111  -0.96434  -0.93714  -0.91865
 Alpha  occ. eigenvalues --   -0.90140  -0.87711  -0.87339  -0.86768  -0.84740
 Alpha  occ. eigenvalues --   -0.79309  -0.77246  -0.75559  -0.74069  -0.66197
 Alpha  occ. eigenvalues --   -0.65279  -0.63607  -0.61076  -0.55532  -0.54864
 Alpha  occ. eigenvalues --   -0.52716  -0.51601  -0.49939  -0.48521  -0.47186
 Alpha  occ. eigenvalues --   -0.46785  -0.46513  -0.46009  -0.44033  -0.43808
 Alpha  occ. eigenvalues --   -0.42516  -0.40620  -0.40309  -0.40108  -0.38271
 Alpha  occ. eigenvalues --   -0.36515  -0.36066  -0.35893  -0.35672  -0.35215
 Alpha  occ. eigenvalues --   -0.34414  -0.33800  -0.33757  -0.32440  -0.31963
 Alpha  occ. eigenvalues --   -0.28800  -0.27814  -0.27311  -0.26282
 Alpha virt. eigenvalues --   -0.07206  -0.06336  -0.05216  -0.04734  -0.03894
 Alpha virt. eigenvalues --   -0.02239  -0.00906  -0.00463   0.00707   0.01403
 Alpha virt. eigenvalues --    0.01955   0.02109   0.02295   0.02403   0.03637

 Mulliken charges:
               1
     1  C    0.843053
     2  C   -0.527355
     3  C   -0.883246
     4  C    0.090829
     5  C    0.248063
     6  C   -1.614093
     7  C    0.028029
     8  C   -0.945636
     9  C   -0.286787
    10  C   -0.051861
    11  C   -0.530544
    12  C   -0.393332
    13  H    0.134558
    14  H    0.156933
    15  H    0.157917
    16  H    0.156843
    17  Cl   0.631976
    18  Cl   0.578194
    19  Cl   0.521281
    20  Cl   0.643560
    21  Cl   0.480636
    22  Cl   0.560979
 Sum of Mulliken charges =  -0.00000

 Dipole moment (field-independent basis, Debye):
    X=             -0.1553    Y=              1.3945    Z=              0.8465  Tot=              1.6386
 Quadrupole moment (field-independent basis, Debye-Ang):
   XX=           -157.3015   YY=           -143.4418   ZZ=           -142.7524
   XY=              2.4233   XZ=              2.8189   YZ=              3.5920

 Normal termination of Gaussian 16 at Thu Mar 17 13:58:28 2022.
