 Gaussian 16, Revision B.01,
 Gaussian 16:  EM64L-G16RevB.01 20-Dec-2017

 --------------------------------
 # opt b3lyp/6-311+g(d,p) scf=xqc
 --------------------------------

 -------------------
 Title Card Required
 -------------------
 Symbolic Z-matrix:
 Charge =  0 Multiplicity = 1

 SCF Done:  E(RB3LYP) =  -2761.39576779     A.U. after   16 cycles
 SCF Done:  E(RB3LYP) =  -2761.47262467     A.U. after   15 cycles
 SCF Done:  E(RB3LYP) =  -2761.47844114     A.U. after   14 cycles
 SCF Done:  E(RB3LYP) =  -2761.46753824     A.U. after   16 cycles
 SCF Done:  E(RB3LYP) =  -2761.47953250     A.U. after   13 cycles
 SCF Done:  E(RB3LYP) =  -2761.47970027     A.U. after   12 cycles
 SCF Done:  E(RB3LYP) =  -2761.47991866     A.U. after   13 cycles
 SCF Done:  E(RB3LYP) =  -2761.48403952     A.U. after   17 cycles
 SCF Done:  E(RB3LYP) =  -2761.47759749     A.U. after   18 cycles
 SCF Done:  E(RB3LYP) =  -2761.48709653     A.U. after   15 cycles
 SCF Done:  E(RB3LYP) =  -2761.51301306     A.U. after   17 cycles
 SCF Done:  E(RB3LYP) =  -2761.51351771     A.U. after   16 cycles
 SCF Done:  E(RB3LYP) =  -2761.51366236     A.U. after   14 cycles
 SCF Done:  E(RB3LYP) =  -2761.51376259     A.U. after   14 cycles
 SCF Done:  E(RB3LYP) =  -2761.51381329     A.U. after   14 cycles
 SCF Done:  E(RB3LYP) =  -2761.51384017     A.U. after   14 cycles
 SCF Done:  E(RB3LYP) =  -2761.51384239     A.U. after   12 cycles
 SCF Done:  E(RB3LYP) =  -2761.51384282     A.U. after   12 cycles
 SCF Done:  E(RB3LYP) =  -2761.51384295     A.U. after   11 cycles
 SCF Done:  E(RB3LYP) =  -2761.51384311     A.U. after   11 cycles
 Optimization completed.
    -- Stationary point found.

                         Standard orientation:
 ---------------------------------------------------------------------
 Center     Atomic      Atomic             Coordinates (Angstroms)
 Number     Number       Type             X           Y           Z
 ---------------------------------------------------------------------
      1          6           0        1.269488    0.113829   -0.000544
      2          6           0        1.973744    0.037851   -1.204546
      3          6           0        3.357438   -0.113861   -1.211417
      4          6           0        4.036351   -0.189011    0.000280
      5          6           0        3.356666   -0.114862    1.211601
      6          6           0        1.972982    0.036866    1.203886
      7          6           0       -0.214137    0.283533   -0.000417
      8          6           0       -0.806904    1.552077   -0.000173
      9          6           0       -2.184344    1.725667    0.000245
     10          6           0       -3.013731    0.612197    0.000295
     11          6           0       -2.474526   -0.679562   -0.000088
     12          6           0       -1.078262   -0.824065   -0.000367
     13          1           0        1.440542    0.096838   -2.146381
     14          1           0        3.901695   -0.172790   -2.145143
     15          1           0        3.900283   -0.174536    2.145652
     16          1           0        1.439048    0.095014    2.145383
     17          1           0       -2.612127    2.718121    0.000539
     18         17           0       -0.384507   -2.425144   -0.000450
     19         17           0       -3.515787   -2.068864   -0.000334
     20         17           0       -4.738304    0.871618    0.000882
     21         17           0        5.783516   -0.380427    0.000739
     22         17           0        0.194022    2.990663   -0.000400
 ---------------------------------------------------------------------

 The electronic state is 1-A.
 Alpha  occ. eigenvalues -- -101.57995-101.57922-101.57734-101.57601-101.56286
 Alpha  occ. eigenvalues --  -10.28049 -10.27875 -10.27824 -10.27369 -10.25333
 Alpha  occ. eigenvalues --  -10.23664 -10.22276 -10.21482 -10.20382 -10.20380
 Alpha  occ. eigenvalues --  -10.20278 -10.20278  -9.49452  -9.49386  -9.49209
 Alpha  occ. eigenvalues --   -9.49067  -9.47743  -7.25945  -7.25889  -7.25700
 Alpha  occ. eigenvalues --   -7.25545  -7.24930  -7.24868  -7.24866  -7.24783
 Alpha  occ. eigenvalues --   -7.24696  -7.24608  -7.24549  -7.24491  -7.24202
 Alpha  occ. eigenvalues --   -7.23227  -7.23191  -0.95971  -0.91573  -0.90736
 Alpha  occ. eigenvalues --   -0.90360  -0.87353  -0.85781  -0.83690  -0.79142
 Alpha  occ. eigenvalues --   -0.77910  -0.75496  -0.73501  -0.65140  -0.64279
 Alpha  occ. eigenvalues --   -0.63573  -0.60796  -0.55468  -0.54734  -0.51992
 Alpha  occ. eigenvalues --   -0.49967  -0.49220  -0.48229  -0.46977  -0.45880
 Alpha  occ. eigenvalues --   -0.45806  -0.45167  -0.43160  -0.42812  -0.41015
 Alpha  occ. eigenvalues --   -0.39853  -0.39181  -0.38726  -0.38078  -0.35836
 Alpha  occ. eigenvalues --   -0.35585  -0.35318  -0.34303  -0.33684  -0.32827
 Alpha  occ. eigenvalues --   -0.32610  -0.32011  -0.28385  -0.27808  -0.26849
 Alpha  occ. eigenvalues --   -0.26354
 Alpha virt. eigenvalues --   -0.06113  -0.05770  -0.04711  -0.04143  -0.03812
 Alpha virt. eigenvalues --   -0.01068  -0.00102   0.00547   0.00858   0.01383
 Alpha virt. eigenvalues --    0.01518   0.02156   0.02733   0.03341   0.04019

 Mulliken charges:
               1
     1  C    0.766660
     2  C   -0.999909
     3  C   -0.814246
     4  C    0.938878
     5  C   -0.813629
     6  C   -1.002883
     7  C    0.232419
     8  C   -0.122982
     9  C   -0.791319
    10  C   -0.013207
    11  C    0.667818
    12  C   -1.266846
    13  H    0.127871
    14  H    0.153177
    15  H    0.153173
    16  H    0.127875
    17  H    0.174840
    18  Cl   0.604977
    19  Cl   0.583999
    20  Cl   0.519993
    21  Cl   0.381157
    22  Cl   0.392186
 Sum of Mulliken charges =  -0.00000

 Dipole moment (field-independent basis, Debye):
    X=             -0.4066    Y=              0.8257    Z=             -0.0002  Tot=              0.9204
 Quadrupole moment (field-independent basis, Debye-Ang):
   XX=           -141.8359   YY=           -134.4145   ZZ=           -126.3116
   XY=             -2.6347   XZ=             -0.0042   YZ=             -0.0032

 1\1\GINC-DAMODAR\FOpt\RB3LYP\6-311+G(d,p)\C12H5Cl5\PKC\16-Mar-2022\0\\
 # opt b3lyp/6-311+g(d,p) scf=xqc\\Title Card Required\\0,1\C,0.9383172
 085,-0.645348755,0.0464357371\C,2.1865450017,-0.5630611654,0.668147489
 4\C,2.9047336096,0.6293647455,0.6676468244\C,2.3639230697,1.7452182581
 ,0.0374297246\C,1.1233142422,1.6870421704,-0.5888873173\C,0.4158561876
 ,0.4882508963,-0.5808317564\C,0.1762959373,-1.9295849681,0.0447535342\
 C,0.3350881587,-2.874899147,-0.9759042123\C,-0.3664271757,-4.072862633
 ,-0.9912387772\C,-1.2587265868,-4.355764133,0.0341723593\C,-1.45624783

 Normal termination of Gaussian 16 at Wed Mar 16 20:42:16 2022.
