 Gaussian 16, Revision B.01,
 Gaussian 16:  EM64L-G16RevB.01 20-Dec-2017

 --------------------------------
 # opt b3lyp/6-311+g(d,p) scf=xqc
 --------------------------------

 -------------------
 Title Card Required
 -------------------
 Symbolic Z-matrix:
 Charge =  0 Multiplicity = 1

 SCF Done:  E(RB3LYP) =  -3680.63143209     A.U. after   16 cycles
 SCF Done:  E(RB3LYP) =  -3680.70546015     A.U. after   16 cycles
 SCF Done:  E(RB3LYP) =  -3680.71163777     A.U. after   14 cycles
 SCF Done:  E(RB3LYP) =  -3680.70115495     A.U. after   16 cycles
 SCF Done:  E(RB3LYP) =  -3680.71271205     A.U. after   13 cycles
 SCF Done:  E(RB3LYP) =  -3680.71286855     A.U. after   12 cycles
 SCF Done:  E(RB3LYP) =  -3680.71305234     A.U. after   13 cycles
 SCF Done:  E(RB3LYP) =  -3680.71962423     A.U. after   17 cycles
 SCF Done:  E(RB3LYP) =  -3680.65471049     A.U. after   17 cycles
 SCF Done:  E(RB3LYP) =  -3680.73785365     A.U. after   16 cycles
 SCF Done:  E(RB3LYP) =  -3680.74196919     A.U. after   17 cycles
 SCF Done:  E(RB3LYP) =  -3680.73899929     A.U. after   16 cycles
 SCF Done:  E(RB3LYP) =  -3680.74616810     A.U. after   15 cycles
 SCF Done:  E(RB3LYP) =  -3680.74646795     A.U. after   14 cycles
 SCF Done:  E(RB3LYP) =  -3680.74661325     A.U. after   15 cycles
 SCF Done:  E(RB3LYP) =  -3680.74665584     A.U. after   13 cycles
 SCF Done:  E(RB3LYP) =  -3680.74670502     A.U. after   14 cycles
 SCF Done:  E(RB3LYP) =  -3680.74672998     A.U. after   13 cycles
 SCF Done:  E(RB3LYP) =  -3680.74673875     A.U. after   12 cycles
 SCF Done:  E(RB3LYP) =  -3680.74673962     A.U. after   11 cycles
 Optimization completed.
    -- Stationary point found.

                         Standard orientation:
 ---------------------------------------------------------------------
 Center     Atomic      Atomic             Coordinates (Angstroms)
 Number     Number       Type             X           Y           Z
 ---------------------------------------------------------------------
      1          6           0        0.574109    0.153910    0.001025
      2          6           0        1.272079    0.092047   -1.203120
      3          6           0        2.656277   -0.040211   -1.203017
      4          6           0        3.373140   -0.113141   -0.000518
      5          6           0        2.656773   -0.048546    1.202687
      6          6           0        1.272508    0.083711    1.204354
      7          6           0       -0.911714    0.303884    0.001064
      8          6           0       -1.516783    1.566298    0.004257
      9          6           0       -2.896174    1.721935    0.004349
     10          6           0       -3.711507    0.597776    0.001279
     11          6           0       -3.156928   -0.687872   -0.001813
     12          6           0       -1.759183   -0.815765   -0.001907
     13          1           0        0.747614    0.145632   -2.147958
     14          1           0        0.748638    0.130637    2.149831
     15          1           0       -3.336500    2.708891    0.006864
     16         17           0       -1.043683   -2.406381   -0.005892
     17         17           0       -4.179944   -2.089345   -0.005323
     18         17           0        3.479612   -0.131781    2.739842
     19         17           0       -5.438110    0.835337    0.001590
     20         17           0        5.100739   -0.277809   -0.001487
     21         17           0        3.478546   -0.112788   -2.741000
     22         17           0       -0.531003    3.013985    0.008707
 ---------------------------------------------------------------------

 The electronic state is 1-A.
 Alpha  occ. eigenvalues -- -101.58458-101.58401-101.58373-101.58230-101.57726
 Alpha  occ. eigenvalues -- -101.57600-101.57600 -10.28728 -10.28454 -10.28399
 Alpha  occ. eigenvalues --  -10.28050 -10.27658 -10.27395 -10.27389 -10.24474
 Alpha  occ. eigenvalues --  -10.23237 -10.22856 -10.21806 -10.21804  -9.49915
 Alpha  occ. eigenvalues --   -9.49864  -9.49847  -9.49696  -9.49187  -9.49059
 Alpha  occ. eigenvalues --   -9.49058  -7.26409  -7.26369  -7.26340  -7.26176
 Alpha  occ. eigenvalues --   -7.25687  -7.25547  -7.25547  -7.25393  -7.25343
 Alpha  occ. eigenvalues --   -7.25332  -7.25328  -7.25260  -7.25247  -7.25176
 Alpha  occ. eigenvalues --   -7.25120  -7.24669  -7.24586  -7.24538  -7.24538
 Alpha  occ. eigenvalues --   -7.24477  -7.24477  -0.96656  -0.95103  -0.91844
 Alpha  occ. eigenvalues --   -0.91188  -0.90038  -0.88098  -0.87661  -0.85804
 Alpha  occ. eigenvalues --   -0.84250  -0.79567  -0.76482  -0.76144  -0.74538
 Alpha  occ. eigenvalues --   -0.66454  -0.64404  -0.64184  -0.61693  -0.55639
 Alpha  occ. eigenvalues --   -0.55398  -0.53587  -0.53002  -0.50048  -0.48830
 Alpha  occ. eigenvalues --   -0.47570  -0.47155  -0.46774  -0.46271  -0.45290
 Alpha  occ. eigenvalues --   -0.44450  -0.43042  -0.41508  -0.41295  -0.40322
 Alpha  occ. eigenvalues --   -0.39452  -0.38693  -0.36713  -0.36342  -0.36158
 Alpha  occ. eigenvalues --   -0.35207  -0.35202  -0.34730  -0.34158  -0.33993
 Alpha  occ. eigenvalues --   -0.33409  -0.32453  -0.32015  -0.28476  -0.27531
 Alpha  occ. eigenvalues --   -0.27372  -0.27321
 Alpha virt. eigenvalues --   -0.06801  -0.06485  -0.05759  -0.05222  -0.05176
 Alpha virt. eigenvalues --   -0.03745  -0.01046  -0.00537   0.00511   0.01246
 Alpha virt. eigenvalues --    0.01364   0.01660   0.01750   0.02189   0.02392

 Mulliken charges:
               1
     1  C    0.214885
     2  C   -1.485875
     3  C   -0.254440
     4  C   -0.082403
     5  C   -0.251813
     6  C   -1.484998
     7  C    0.377249
     8  C    0.023110
     9  C   -0.869135
    10  C    0.061335
    11  C    0.664199
    12  C   -1.259928
    13  H    0.146580
    14  H    0.146587
    15  H    0.175078
    16  Cl   0.623036
    17  Cl   0.580665
    18  Cl   0.547351
    19  Cl   0.534434
    20  Cl   0.627582
    21  Cl   0.547439
    22  Cl   0.419064
 Sum of Mulliken charges =  -0.00000

 Dipole moment (field-independent basis, Debye):
    X=             -1.6096    Y=              0.9072    Z=              0.0030  Tot=              1.8477
 Quadrupole moment (field-independent basis, Debye-Ang):
   XX=           -164.3647   YY=           -156.7860   ZZ=           -156.1499
   XY=             -3.3390   XZ=             -0.0078   YZ=             -0.0042

 Normal termination of Gaussian 16 at Fri Mar 25 11:40:23 2022.
