 Gaussian 16, Revision B.01,
 Gaussian 16:  EM64L-G16RevB.01 20-Dec-2017

 --------------------------------
 # opt b3lyp/6-311+g(d,p) scf=xqc
 --------------------------------

 -------------------
 Title Card Required
 -------------------
 Symbolic Z-matrix:
 Charge =  0 Multiplicity = 1

 SCF Done:  E(RB3LYP) =  -3221.01523630     A.U. after   17 cycles
 SCF Done:  E(RB3LYP) =  -3221.08738508     A.U. after   17 cycles
 SCF Done:  E(RB3LYP) =  -3221.09063703     A.U. after   14 cycles
 SCF Done:  E(RB3LYP) =  -3221.07279777     A.U. after   16 cycles
 SCF Done:  E(RB3LYP) =  -3221.09278547     A.U. after   14 cycles
 SCF Done:  E(RB3LYP) =  -3221.09330070     A.U. after   13 cycles
 SCF Done:  E(RB3LYP) =  -3221.09338866     A.U. after   13 cycles
 SCF Done:  E(RB3LYP) =  -3221.09748434     A.U. after   17 cycles
 SCF Done:  E(RB3LYP) =  -3221.11778255     A.U. after   18 cycles
 SCF Done:  E(RB3LYP) =  -3221.07837629     A.U. after   19 cycles
 SCF Done:  E(RB3LYP) =  -3221.12877607     A.U. after   19 cycles
 SCF Done:  E(RB3LYP) =  -3221.12937935     A.U. after   15 cycles
 SCF Done:  E(RB3LYP) =  -3221.13071665     A.U. after   16 cycles
 SCF Done:  E(RB3LYP) =  -3221.13087251     A.U. after   14 cycles
 SCF Done:  E(RB3LYP) =  -3221.13095897     A.U. after   15 cycles
 SCF Done:  E(RB3LYP) =  -3221.13100584     A.U. after   15 cycles
 SCF Done:  E(RB3LYP) =  -3221.13102849     A.U. after   14 cycles
 SCF Done:  E(RB3LYP) =  -3221.13103184     A.U. after   12 cycles
 SCF Done:  E(RB3LYP) =  -3221.13103460     A.U. after   12 cycles
 SCF Done:  E(RB3LYP) =  -3221.13103533     A.U. after   12 cycles
 Optimization completed.
    -- Stationary point found.

                         Standard orientation:
 ---------------------------------------------------------------------
 Center     Atomic      Atomic             Coordinates (Angstroms)
 Number     Number       Type             X           Y           Z
 ---------------------------------------------------------------------
      1          6           0       -0.695924   -0.000359   -0.327271
      2          6           0       -1.272350   -0.000349   -1.599142
      3          6           0       -2.653926   -0.000297   -1.741783
      4          6           0       -3.478583   -0.000258   -0.618352
      5          6           0       -2.906561   -0.000235    0.657074
      6          6           0       -1.520529   -0.000300    0.796228
      7          6           0        0.789950   -0.000248   -0.164473
      8          6           0        1.501930   -1.208131   -0.087804
      9          6           0        2.893090   -1.203260    0.061398
     10          6           0        3.581262    0.000552    0.135219
     11          6           0        2.892395    1.204010    0.061561
     12          6           0        1.501292    1.208095   -0.087859
     13          1           0       -0.643284   -0.000383   -2.481097
     14          1           0       -3.105138   -0.000271   -2.725648
     15          1           0       -1.093544   -0.000277    1.790978
     16          1           0        4.656158    0.000864    0.250754
     17         17           0        0.636271    2.718945   -0.180631
     18         17           0        3.806889    2.685273    0.160052
     19         17           0       -3.891690   -0.000251    2.098920
     20         17           0       -5.209850   -0.000112   -0.842832
     21         17           0        3.808434   -2.684020    0.159420
     22         17           0        0.637802   -2.719556   -0.179858
 ---------------------------------------------------------------------

 The electronic state is 1-A.
 Alpha  occ. eigenvalues -- -101.58137-101.58137-101.58000-101.58000-101.57057
 Alpha  occ. eigenvalues -- -101.57046 -10.28023 -10.28022 -10.27866 -10.27865
 Alpha  occ. eigenvalues --  -10.26570 -10.26504 -10.24457 -10.22875 -10.22451
 Alpha  occ. eigenvalues --  -10.21364 -10.21198 -10.20927  -9.49594  -9.49594
 Alpha  occ. eigenvalues --   -9.49471  -9.49471  -9.48515  -9.48505  -7.26086
 Alpha  occ. eigenvalues --   -7.26086  -7.25962  -7.25962  -7.25071  -7.25071
 Alpha  occ. eigenvalues --   -7.25011  -7.25011  -7.24996  -7.24987  -7.24955
 Alpha  occ. eigenvalues --   -7.24955  -7.24875  -7.24875  -7.23997  -7.23985
 Alpha  occ. eigenvalues --   -7.23939  -7.23928  -0.96194  -0.93426  -0.92301
 Alpha  occ. eigenvalues --   -0.89761  -0.87973  -0.87467  -0.86385  -0.84272
 Alpha  occ. eigenvalues --   -0.79634  -0.77031  -0.74809  -0.74479  -0.67213
 Alpha  occ. eigenvalues --   -0.64688  -0.62612  -0.61290  -0.55124  -0.55048
 Alpha  occ. eigenvalues --   -0.53142  -0.51842  -0.49758  -0.48359  -0.47210
 Alpha  occ. eigenvalues --   -0.46553  -0.46229  -0.45696  -0.43865  -0.43718
 Alpha  occ. eigenvalues --   -0.42628  -0.41088  -0.40238  -0.39990  -0.37767
 Alpha  occ. eigenvalues --   -0.36496  -0.36206  -0.35852  -0.35798  -0.34724
 Alpha  occ. eigenvalues --   -0.34232  -0.33461  -0.33204  -0.32688  -0.32239
 Alpha  occ. eigenvalues --   -0.28550  -0.28048  -0.26782  -0.26616
 Alpha virt. eigenvalues --   -0.06476  -0.06171  -0.05048  -0.04499  -0.04427
 Alpha virt. eigenvalues --   -0.02050  -0.01052  -0.00643   0.00309   0.01233
 Alpha virt. eigenvalues --    0.01783   0.02191   0.02553   0.02792   0.02955

 Mulliken charges:
               1
     1  C    0.538718
     2  C   -0.735112
     3  C   -1.173450
     4  C    0.445195
     5  C    0.188580
     6  C   -1.456841
     7  C   -0.054737
     8  C   -0.885568
     9  C    0.355553
    10  C   -0.510483
    11  C    0.357110
    12  C   -0.887092
    13  H    0.129467
    14  H    0.156885
    15  H    0.143263
    16  H    0.172876
    17  Cl   0.618596
    18  Cl   0.488963
    19  Cl   0.513655
    20  Cl   0.486890
    21  Cl   0.489030
    22  Cl   0.618504
 Sum of Mulliken charges =  -0.00000

 Dipole moment (field-independent basis, Debye):
    X=              1.6801    Y=              0.0002    Z=             -1.0769  Tot=              1.9956
 Quadrupole moment (field-independent basis, Debye-Ang):
   XX=           -148.2995   YY=           -149.8706   ZZ=           -139.9729
   XY=              0.0012   XZ=              3.6060   YZ=              0.0003

 Normal termination of Gaussian 16 at Thu Mar 17 14:46:10 2022.
