 Gaussian 16, Revision B.01,
 Gaussian 16:  EM64L-G16RevB.01 20-Dec-2017

 --------------------------------
 # opt b3lyp/6-311+g(d,p) scf=xqc
 --------------------------------

 -------------------
 Title Card Required
 -------------------
 Symbolic Z-matrix:
 Charge =  0 Multiplicity = 1

 SCF Done:  E(RB3LYP) =  -3680.68467478     A.U. after   16 cycles
 SCF Done:  E(RB3LYP) =  -3680.72103384     A.U. after   17 cycles
 SCF Done:  E(RB3LYP) =  -3680.72848940     A.U. after   15 cycles
 SCF Done:  E(RB3LYP) =  -3680.73175694     A.U. after   13 cycles
 SCF Done:  E(RB3LYP) =  -3680.73193492     A.U. after   13 cycles
 SCF Done:  E(RB3LYP) =  -3680.73195923     A.U. after   12 cycles
 SCF Done:  E(RB3LYP) =  -3680.73196506     A.U. after   11 cycles
 SCF Done:  E(RB3LYP) =  -3680.73196474     A.U. after   10 cycles
 SCF Done:  E(RB3LYP) =  -3680.71926479     A.U. after   17 cycles
 SCF Done:  E(RB3LYP) =  -3680.73751117     A.U. after   17 cycles
 SCF Done:  E(RB3LYP) =  -3680.74363350     A.U. after   14 cycles
 SCF Done:  E(RB3LYP) =  -3680.74466561     A.U. after   14 cycles
 SCF Done:  E(RB3LYP) =  -3680.74487141     A.U. after   14 cycles
 SCF Done:  E(RB3LYP) =  -3680.74494480     A.U. after   13 cycles
 SCF Done:  E(RB3LYP) =  -3680.74500535     A.U. after   13 cycles
 SCF Done:  E(RB3LYP) =  -3680.74505703     A.U. after   13 cycles
 SCF Done:  E(RB3LYP) =  -3680.74506505     A.U. after   12 cycles
 SCF Done:  E(RB3LYP) =  -3680.74506611     A.U. after   10 cycles
 SCF Done:  E(RB3LYP) =  -3680.74506619     A.U. after   10 cycles
 SCF Done:  E(RB3LYP) =  -3680.74506621     A.U. after   10 cycles
 Optimization completed.
    -- Stationary point found.

                         Standard orientation:
 ---------------------------------------------------------------------
 Center     Atomic      Atomic             Coordinates (Angstroms)
 Number     Number       Type             X           Y           Z
 ---------------------------------------------------------------------
      1          6           0        0.812888    0.106717   -0.038598
      2          6           0        1.512288    1.041915    0.724447
      3          6           0        2.903560    1.061957    0.713803
      4          6           0        3.630729    0.151977   -0.064180
      5          6           0        2.915970   -0.779415   -0.832498
      6          6           0        1.526950   -0.804077   -0.818905
      7          6           0       -0.677572    0.129716   -0.051883
      8          6           0       -1.320828    1.278966   -0.512666
      9          6           0       -2.705571    1.366982   -0.555661
     10          6           0       -3.495731    0.293135   -0.133247
     11          6           0       -2.866197   -0.869263    0.342607
     12          6           0       -1.466013   -0.945795    0.384143
     13          1           0        0.982006    1.752740    1.344496
     14          1           0        1.010187   -1.533484   -1.427569
     15          1           0       -0.730232    2.115486   -0.861952
     16         17           0       -0.700612   -2.374852    1.030825
     17         17           0       -3.830315   -2.205698    0.889878
     18         17           0        3.751419   -1.936831   -1.837039
     19         17           0       -5.226117    0.397128   -0.194124
     20         17           0        5.365221    0.177240   -0.079473
     21         17           0       -3.424257    2.837910   -1.156077
     22         17           0        3.718497    2.250302    1.699000
 ---------------------------------------------------------------------

 The electronic state is 1-A.
 Alpha  occ. eigenvalues -- -101.58438-101.58396-101.58285-101.58267-101.57954
 Alpha  occ. eigenvalues -- -101.57861-101.57779 -10.28730 -10.28596 -10.28282
 Alpha  occ. eigenvalues --  -10.28021 -10.27887 -10.27647 -10.27615 -10.24243
 Alpha  occ. eigenvalues --  -10.23444 -10.22694 -10.22087 -10.22015  -9.49901
 Alpha  occ. eigenvalues --   -9.49863  -9.49744  -9.49741  -9.49414  -9.49317
 Alpha  occ. eigenvalues --   -9.49237  -7.26405  -7.26369  -7.26234  -7.26233
 Alpha  occ. eigenvalues --   -7.25915  -7.25806  -7.25726  -7.25382  -7.25345
 Alpha  occ. eigenvalues --   -7.25294  -7.25255  -7.25227  -7.25217  -7.25157
 Alpha  occ. eigenvalues --   -7.25150  -7.24897  -7.24813  -7.24797  -7.24736
 Alpha  occ. eigenvalues --   -7.24716  -7.24654  -0.96757  -0.95367  -0.92181
 Alpha  occ. eigenvalues --   -0.90506  -0.90272  -0.88228  -0.87288  -0.86485
 Alpha  occ. eigenvalues --   -0.84737  -0.79268  -0.76754  -0.75964  -0.74623
 Alpha  occ. eigenvalues --   -0.66856  -0.64907  -0.63927  -0.61640  -0.55739
 Alpha  occ. eigenvalues --   -0.55319  -0.53283  -0.53130  -0.50299  -0.48765
 Alpha  occ. eigenvalues --   -0.47492  -0.47358  -0.47000  -0.46482  -0.45482
 Alpha  occ. eigenvalues --   -0.44551  -0.42966  -0.41581  -0.41528  -0.40709
 Alpha  occ. eigenvalues --   -0.38956  -0.38628  -0.36944  -0.36163  -0.35950
 Alpha  occ. eigenvalues --   -0.35668  -0.35426  -0.34949  -0.34373  -0.34024
 Alpha  occ. eigenvalues --   -0.33825  -0.32224  -0.32155  -0.28787  -0.27759
 Alpha  occ. eigenvalues --   -0.27602  -0.26738
 Alpha virt. eigenvalues --   -0.07665  -0.06725  -0.05700  -0.05160  -0.04478
 Alpha virt. eigenvalues --   -0.03922  -0.01189  -0.00653   0.00902   0.01148
 Alpha virt. eigenvalues --    0.01272   0.01859   0.01957   0.02231   0.02283

 Mulliken charges:
               1
     1  C    0.884630
     2  C   -0.759244
     3  C   -0.422512
     4  C    0.016422
     5  C   -0.487595
     6  C   -1.214666
     7  C   -0.286898
     8  C   -0.795861
     9  C   -0.354978
    10  C   -0.057731
    11  C   -0.308116
    12  C   -0.707933
    13  H    0.153628
    14  H    0.157879
    15  H    0.159216
    16  Cl   0.590573
    17  Cl   0.575700
    18  Cl   0.542142
    19  Cl   0.631639
    20  Cl   0.616727
    21  Cl   0.547874
    22  Cl   0.519105
 Sum of Mulliken charges =  -0.00000

 Dipole moment (field-independent basis, Debye):
    X=             -0.5762    Y=              0.5908    Z=             -0.2909  Tot=              0.8750
 Quadrupole moment (field-independent basis, Debye-Ang):
   XX=           -167.9665   YY=           -156.5186   ZZ=           -157.4709
   XY=              0.1097   XZ=             -0.1080   YZ=              0.8958

 Normal termination of Gaussian 16 at Fri Mar 25 11:24:17 2022.
