 Gaussian 16, Revision B.01,
 Gaussian 16:  EM64L-G16RevB.01 20-Dec-2017

 --------------------------------
 # opt b3lyp/6-311+g(d,p) scf=xqc
 --------------------------------

 -------------------
 Title Card Required
 -------------------
 Symbolic Z-matrix:
 Charge =  0 Multiplicity = 1

 SCF Done:  E(RB3LYP) =  -2761.45086056     A.U. after   16 cycles
 SCF Done:  E(RB3LYP) =  -2761.48898511     A.U. after   16 cycles
 SCF Done:  E(RB3LYP) =  -2761.49572698     A.U. after   15 cycles
 SCF Done:  E(RB3LYP) =  -2761.49896255     A.U. after   13 cycles
 SCF Done:  E(RB3LYP) =  -2761.49914577     A.U. after   12 cycles
 SCF Done:  E(RB3LYP) =  -2761.49916829     A.U. after   12 cycles
 SCF Done:  E(RB3LYP) =  -2761.49917417     A.U. after   11 cycles
 SCF Done:  E(RB3LYP) =  -2761.49917380     A.U. after   10 cycles
 SCF Done:  E(RB3LYP) =  -2761.50235234     A.U. after   16 cycles
 SCF Done:  E(RB3LYP) =  -2761.50811110     A.U. after   16 cycles
 SCF Done:  E(RB3LYP) =  -2761.51138623     A.U. after   17 cycles
 SCF Done:  E(RB3LYP) =  -2761.51215935     A.U. after   17 cycles
 SCF Done:  E(RB3LYP) =  -2761.51237732     A.U. after   14 cycles
 SCF Done:  E(RB3LYP) =  -2761.51248886     A.U. after   14 cycles
 SCF Done:  E(RB3LYP) =  -2761.51253144     A.U. after   13 cycles
 SCF Done:  E(RB3LYP) =  -2761.51253897     A.U. after   12 cycles
 SCF Done:  E(RB3LYP) =  -2761.51254032     A.U. after   12 cycles
 SCF Done:  E(RB3LYP) =  -2761.51254051     A.U. after   11 cycles
 SCF Done:  E(RB3LYP) =  -2761.51254057     A.U. after   11 cycles
 Optimization completed.
    -- Stationary point found.

                         Standard orientation:
 ---------------------------------------------------------------------
 Center     Atomic      Atomic             Coordinates (Angstroms)
 Number     Number       Type             X           Y           Z
 ---------------------------------------------------------------------
      1          6           0        1.554534    0.170369   -0.006498
      2          6           0        2.249998    0.833746    1.010133
      3          6           0        3.641749    0.886264    1.011827
      4          6           0        4.342807    0.274784   -0.021219
      5          6           0        3.675324   -0.385448   -1.048946
      6          6           0        2.285597   -0.437077   -1.034018
      7          6           0        0.064271    0.170069   -0.009667
      8          6           0       -0.601739    1.395698   -0.065861
      9          6           0       -1.987618    1.471797   -0.073968
     10          6           0       -2.760310    0.307464   -0.027403
     11          6           0       -2.110352   -0.936065    0.037989
     12          6           0       -0.708930   -0.999844    0.050193
     13          1           0        1.701549    1.303353    1.818788
     14          1           0        4.173798    1.393209    1.806491
     15          1           0        4.235220   -0.850368   -1.850168
     16          1           0        1.767584   -0.948054   -1.836545
     17          1           0       -0.025459    2.309544   -0.123034
     18         17           0        0.078063   -2.552246    0.192523
     19         17           0       -3.053071   -2.393547    0.116681
     20         17           0       -4.493447    0.398923   -0.048065
     21         17           0        6.098296    0.338656   -0.032222
     22         17           0       -2.731292    3.048319   -0.155440
 ---------------------------------------------------------------------

 The electronic state is 1-A.
 Alpha  occ. eigenvalues -- -101.57957-101.57903-101.57810-101.57639-101.56544
 Alpha  occ. eigenvalues --  -10.28147 -10.27996 -10.27595 -10.27434 -10.25601
 Alpha  occ. eigenvalues --  -10.23421 -10.21981 -10.21722 -10.20695 -10.20621
 Alpha  occ. eigenvalues --  -10.20568 -10.20528  -9.49420  -9.49371  -9.49267
 Alpha  occ. eigenvalues --   -9.49118  -9.48001  -7.25923  -7.25875  -7.25757
 Alpha  occ. eigenvalues --   -7.25606  -7.24901  -7.24854  -7.24816  -7.24765
 Alpha  occ. eigenvalues --   -7.24745  -7.24685  -7.24603  -7.24523  -7.24460
 Alpha  occ. eigenvalues --   -7.23486  -7.23448  -0.96109  -0.91754  -0.91193
 Alpha  occ. eigenvalues --   -0.89659  -0.86937  -0.86302  -0.84414  -0.78824
 Alpha  occ. eigenvalues --   -0.78183  -0.75316  -0.73632  -0.65544  -0.64721
 Alpha  occ. eigenvalues --   -0.63374  -0.60847  -0.55364  -0.54491  -0.52220
 Alpha  occ. eigenvalues --   -0.49858  -0.49466  -0.48172  -0.46878  -0.46170
 Alpha  occ. eigenvalues --   -0.46076  -0.45416  -0.43229  -0.42572  -0.41371
 Alpha  occ. eigenvalues --   -0.40210  -0.39047  -0.38796  -0.37811  -0.35678
 Alpha  occ. eigenvalues --   -0.35614  -0.35413  -0.34836  -0.33503  -0.33439
 Alpha  occ. eigenvalues --   -0.32849  -0.31694  -0.28624  -0.28257  -0.27027
 Alpha  occ. eigenvalues --   -0.25816
 Alpha virt. eigenvalues --   -0.06691  -0.05980  -0.04900  -0.04077  -0.03282
 Alpha virt. eigenvalues --   -0.01147  -0.00277   0.00460   0.00896   0.01273
 Alpha virt. eigenvalues --    0.02147   0.02392   0.02551   0.03609   0.03908

 Mulliken charges:
               1
     1  C    1.236192
     2  C   -0.650393
     3  C   -0.718459
     4  C    0.898147
     5  C   -0.780599
     6  C   -0.983281
     7  C   -0.137034
     8  C   -0.800949
     9  C   -0.295398
    10  C   -0.107316
    11  C   -0.311194
    12  C   -0.799029
    13  H    0.133795
    14  H    0.152774
    15  H    0.153509
    16  H    0.137988
    17  H    0.157139
    18  Cl   0.590564
    19  Cl   0.583273
    20  Cl   0.624955
    21  Cl   0.374928
    22  Cl   0.540389
 Sum of Mulliken charges =  -0.00000

 Dipole moment (field-independent basis, Debye):
    X=              0.6701    Y=              0.7112    Z=             -0.0873  Tot=              0.9811
 Quadrupole moment (field-independent basis, Debye-Ang):
   XX=           -143.3687   YY=           -132.8697   ZZ=           -128.8958
   XY=              0.7040   XZ=             -0.2387   YZ=              4.0286

 1\1\GINC-DAMODAR\FOpt\RB3LYP\6-311+G(d,p)\C12H5Cl5\PKC\16-Mar-2022\0\\
 # opt b3lyp/6-311+g(d,p) scf=xqc\\Title Card Required\\0,1\C,1.3831296
 204,-0.4557108593,0.5785584259\C,2.3281138291,-0.2311095001,-0.4283361
 759\C,3.08109364,0.9401604189,-0.4579822367\C,2.8906198043,1.891915582
 5,0.5372350063\C,1.9623504469,1.6902098951,1.5547287533\C,1.2114961506
 ,0.519620445,1.5677558563\C,0.6249746498,-1.7382333231,0.6136606412\C,
 1.3402145676,-2.9316556551,0.7279783567\C,0.7008080406,-4.162928423,0.
 7685126413\C,-0.6934725535,-4.2386785341,0.6968509498\C,-1.4321006059,

 Normal termination of Gaussian 16 at Wed Mar 16 19:05:40 2022.
