 Gaussian 16, Revision B.01,
 Gaussian 16:  EM64L-G16RevB.01 20-Dec-2017

 --------------------------------
 # opt b3lyp/6-311+g(d,p) scf=xqc
 --------------------------------

 -------------------
 Title Card Required
 -------------------
 Symbolic Z-matrix:
 Charge =  0 Multiplicity = 1

 SCF Done:  E(RB3LYP) =  -3221.01431565     A.U. after   17 cycles
 SCF Done:  E(RB3LYP) =  -3221.08978442     A.U. after   15 cycles
 SCF Done:  E(RB3LYP) =  -3221.09576184     A.U. after   14 cycles
 SCF Done:  E(RB3LYP) =  -3221.08576003     A.U. after   16 cycles
 SCF Done:  E(RB3LYP) =  -3221.09679598     A.U. after   13 cycles
 SCF Done:  E(RB3LYP) =  -3221.09697698     A.U. after   13 cycles
 SCF Done:  E(RB3LYP) =  -3221.09728652     A.U. after   13 cycles
 SCF Done:  E(RB3LYP) =  -3221.09287028     A.U. after   17 cycles
 SCF Done:  E(RB3LYP) =  -3221.10743195     A.U. after   17 cycles
 SCF Done:  E(RB3LYP) =  -3221.10818156     A.U. after   18 cycles
 SCF Done:  E(RB3LYP) =  -3221.12927360     A.U. after   15 cycles
 SCF Done:  E(RB3LYP) =  -3221.13021820     A.U. after   16 cycles
 SCF Done:  E(RB3LYP) =  -3221.13061165     A.U. after   15 cycles
 SCF Done:  E(RB3LYP) =  -3221.13089434     A.U. after   15 cycles
 SCF Done:  E(RB3LYP) =  -3221.13094403     A.U. after   14 cycles
 SCF Done:  E(RB3LYP) =  -3221.13095084     A.U. after   12 cycles
 SCF Done:  E(RB3LYP) =  -3221.13095164     A.U. after   12 cycles
 SCF Done:  E(RB3LYP) =  -3221.13095235     A.U. after   12 cycles
 SCF Done:  E(RB3LYP) =  -3221.13095267     A.U. after   13 cycles
 SCF Done:  E(RB3LYP) =  -3221.13095272     A.U. after   11 cycles
 Optimization completed.
    -- Stationary point found.

                         Standard orientation:
 ---------------------------------------------------------------------
 Center     Atomic      Atomic             Coordinates (Angstroms)
 Number     Number       Type             X           Y           Z
 ---------------------------------------------------------------------
      1          6           0        0.861945    0.145345   -0.332045
      2          6           0        1.449193    0.101206   -1.598511
      3          6           0        2.825252   -0.034768   -1.728883
      4          6           0        3.634554   -0.128085   -0.598136
      5          6           0        3.052600   -0.083773    0.671888
      6          6           0        1.671985    0.052621    0.798431
      7          6           0       -0.615874    0.299622   -0.182638
      8          6           0       -1.213630    1.562550   -0.092973
      9          6           0       -2.585832    1.721949    0.043921
     10          6           0       -3.402975    0.600391    0.094655
     11          6           0       -2.857005   -0.685859    0.009385
     12          6           0       -1.466252   -0.816882   -0.128385
     13          1           0        0.832174    0.172656   -2.486071
     14          1           0        3.284188   -0.069512   -2.708557
     15          1           0        1.237426    0.085295    1.789341
     16          1           0       -3.019206    2.709697    0.110969
     17         17           0       -0.762673   -2.409654   -0.235490
     18         17           0       -3.882651   -2.084599    0.073288
     19         17           0        4.018398   -0.195191    2.122617
     20         17           0       -5.120871    0.842509    0.266841
     21         17           0        5.359489   -0.297632   -0.807193
     22         17           0       -0.226888    3.009036   -0.152176
 ---------------------------------------------------------------------

 The electronic state is 1-A.
 Alpha  occ. eigenvalues -- -101.58238-101.58173-101.58070-101.57931-101.57056
 Alpha  occ. eigenvalues -- -101.57043 -10.28406 -10.28178 -10.28125 -10.27726
 Alpha  occ. eigenvalues --  -10.26558 -10.26497 -10.24087 -10.22579 -10.22403
 Alpha  occ. eigenvalues --  -10.21342 -10.21184 -10.20904  -9.49694  -9.49636
 Alpha  occ. eigenvalues --   -9.49544  -9.49397  -9.48514  -9.48501  -7.26188
 Alpha  occ. eigenvalues --   -7.26141  -7.26037  -7.25876  -7.25172  -7.25116
 Alpha  occ. eigenvalues --   -7.25108  -7.25033  -7.25030  -7.24995  -7.24984
 Alpha  occ. eigenvalues --   -7.24944  -7.24878  -7.24821  -7.23996  -7.23982
 Alpha  occ. eigenvalues --   -7.23938  -7.23925  -0.96317  -0.93473  -0.91475
 Alpha  occ. eigenvalues --   -0.90883  -0.87682  -0.87456  -0.86410  -0.84011
 Alpha  occ. eigenvalues --   -0.79629  -0.76967  -0.75777  -0.73954  -0.65901
 Alpha  occ. eigenvalues --   -0.64640  -0.63924  -0.61088  -0.55485  -0.55084
 Alpha  occ. eigenvalues --   -0.52519  -0.51789  -0.49685  -0.48589  -0.47287
 Alpha  occ. eigenvalues --   -0.46538  -0.46281  -0.45784  -0.43899  -0.43769
 Alpha  occ. eigenvalues --   -0.42534  -0.40416  -0.40116  -0.39826  -0.38985
 Alpha  occ. eigenvalues --   -0.36273  -0.36084  -0.35887  -0.35836  -0.34616
 Alpha  occ. eigenvalues --   -0.34227  -0.34001  -0.33128  -0.32303  -0.32220
 Alpha  occ. eigenvalues --   -0.28209  -0.28008  -0.27151  -0.26634
 Alpha virt. eigenvalues --   -0.06469  -0.06145  -0.05147  -0.04808  -0.04499
 Alpha virt. eigenvalues --   -0.02115  -0.00729  -0.00330   0.00624   0.01104
 Alpha virt. eigenvalues --    0.01679   0.01917   0.02448   0.02490   0.03343

 Mulliken charges:
               1
     1  C    0.417054
     2  C   -0.920130
     3  C   -1.227872
     4  C    0.434678
     5  C    0.368626
     6  C   -1.747922
     7  C    0.419063
     8  C   -0.067391
     9  C   -0.864197
    10  C    0.031433
    11  C    0.632521
    12  C   -1.244348
    13  H    0.130960
    14  H    0.157765
    15  H    0.146225
    16  H    0.174691
    17  Cl   0.629024
    18  Cl   0.583799
    19  Cl   0.511979
    20  Cl   0.531635
    21  Cl   0.477589
    22  Cl   0.424818
 Sum of Mulliken charges =  -0.00000

 Dipole moment (field-independent basis, Debye):
    X=             -1.1618    Y=              0.8941    Z=             -1.1253  Tot=              1.8481
 Quadrupole moment (field-independent basis, Debye-Ang):
   XX=           -154.3635   YY=           -145.5804   ZZ=           -140.0767
   XY=             -2.9066   XZ=             -3.5076   YZ=              0.1751

 Normal termination of Gaussian 16 at Thu Mar 17 15:34:30 2022.
