 Gaussian 16, Revision B.01,
 Gaussian 16:  EM64L-G16RevB.01 20-Dec-2017

 --------------------------------
 # opt b3lyp/6-311+g(d,p) scf=xqc
 --------------------------------

 -------------------
 Title Card Required
 -------------------
 Symbolic Z-matrix:
 Charge =  0 Multiplicity = 1

 SCF Done:  E(RB3LYP) =  -2301.78173338     A.U. after   16 cycles
 SCF Done:  E(RB3LYP) =  -2301.85814497     A.U. after   14 cycles
 SCF Done:  E(RB3LYP) =  -2301.86345441     A.U. after   14 cycles
 SCF Done:  E(RB3LYP) =  -2301.85376135     A.U. after   16 cycles
 SCF Done:  E(RB3LYP) =  -2301.86459922     A.U. after   13 cycles
 SCF Done:  E(RB3LYP) =  -2301.86478859     A.U. after   12 cycles
 SCF Done:  E(RB3LYP) =  -2301.86501882     A.U. after   13 cycles
 SCF Done:  E(RB3LYP) =  -2301.83632331     A.U. after   17 cycles
 SCF Done:  E(RB3LYP) =  -2301.87680902     A.U. after   17 cycles
 SCF Done:  E(RB3LYP) =  -2301.83898268     A.U. after   15 cycles
 SCF Done:  E(RB3LYP) =  -2301.89827860     A.U. after   13 cycles
 SCF Done:  E(RB3LYP) =  -2301.89834088     A.U. after   13 cycles
 SCF Done:  E(RB3LYP) =  -2301.89839767     A.U. after   13 cycles
 SCF Done:  E(RB3LYP) =  -2301.89843848     A.U. after   13 cycles
 SCF Done:  E(RB3LYP) =  -2301.89848665     A.U. after   13 cycles
 SCF Done:  E(RB3LYP) =  -2301.89852082     A.U. after   12 cycles
 SCF Done:  E(RB3LYP) =  -2301.89853475     A.U. after   12 cycles
 SCF Done:  E(RB3LYP) =  -2301.89853691     A.U. after   12 cycles
 SCF Done:  E(RB3LYP) =  -2301.89853701     A.U. after   11 cycles
 SCF Done:  E(RB3LYP) =  -2301.89853705     A.U. after   10 cycles
 Optimization completed.
    -- Stationary point found.

                         Standard orientation:
 ---------------------------------------------------------------------
 Center     Atomic      Atomic             Coordinates (Angstroms)
 Number     Number       Type             X           Y           Z
 ---------------------------------------------------------------------
      1          6           0        0.762820    0.142792   -0.000037
      2          6           0        1.457860    0.005911   -1.203979
      3          6           0        2.823429   -0.264379   -1.211391
      4          6           0        3.493720   -0.397415    0.000016
      5          6           0        2.823246   -0.265040    1.211409
      6          6           0        1.457690    0.005244    1.203948
      7          6           0       -0.701167    0.439219   -0.000028
      8          6           0       -1.180645    1.755502    0.000051
      9          6           0       -2.541328    2.045102    0.000098
     10          6           0       -3.461161    1.007201    0.000087
     11          6           0       -3.024646   -0.314035    0.000010
     12          6           0       -1.654129   -0.596588   -0.000071
     13          1           0        0.931334    0.110422   -2.145589
     14          1           0        3.360171   -0.370099   -2.145341
     15          1           0        3.359866   -0.371276    2.145370
     16          1           0        0.931006    0.109199    2.145530
     17          1           0       -2.875217    3.074120    0.000146
     18          1           0       -4.523026    1.215897    0.000137
     19         17           0       -1.105459   -2.253755   -0.000228
     20         17           0       -4.220556   -1.586909    0.000026
     21         17           0        5.218448   -0.738557    0.000061
     22         17           0       -0.052331    3.099848    0.000087
 ---------------------------------------------------------------------

 The electronic state is 1-A.
 Alpha  occ. eigenvalues -- -101.57272-101.57195-101.56997-101.56044 -10.27214
 Alpha  occ. eigenvalues --  -10.26719 -10.26545 -10.25041 -10.23215 -10.21673
 Alpha  occ. eigenvalues --  -10.21384 -10.21122 -10.20061 -10.20059 -10.19983
 Alpha  occ. eigenvalues --  -10.19983  -9.48731  -9.48667  -9.48464  -9.47501
 Alpha  occ. eigenvalues --   -7.25216  -7.25153  -7.24935  -7.24211  -7.24156
 Alpha  occ. eigenvalues --   -7.24153  -7.24073  -7.23960  -7.23949  -7.23893
 Alpha  occ. eigenvalues --   -7.22986  -7.22951  -0.94479  -0.90788  -0.90062
 Alpha  occ. eigenvalues --   -0.87922  -0.85435  -0.84012  -0.79371  -0.77601
 Alpha  occ. eigenvalues --   -0.74730  -0.73651  -0.65697  -0.63968  -0.62444
 Alpha  occ. eigenvalues --   -0.60526  -0.54969  -0.52924  -0.52217  -0.49610
 Alpha  occ. eigenvalues --   -0.48825  -0.47647  -0.46128  -0.45312  -0.45081
 Alpha  occ. eigenvalues --   -0.44043  -0.41969  -0.41681  -0.40476  -0.39126
 Alpha  occ. eigenvalues --   -0.38251  -0.38038  -0.36339  -0.34923  -0.34500
 Alpha  occ. eigenvalues --   -0.33204  -0.33096  -0.32377  -0.32173  -0.28190
 Alpha  occ. eigenvalues --   -0.28010  -0.26245  -0.26047
 Alpha virt. eigenvalues --   -0.05327  -0.05176  -0.03902  -0.03449  -0.02850
 Alpha virt. eigenvalues --   -0.00784   0.00159   0.00683   0.01255   0.01752
 Alpha virt. eigenvalues --    0.02369   0.02700   0.02892   0.04341   0.04432

 Mulliken charges:
               1
     1  C    0.614304
     2  C   -0.920852
     3  C   -0.832496
     4  C    0.952938
     5  C   -0.832432
     6  C   -0.921167
     7  C    0.266715
     8  C    0.070817
     9  C   -0.375643
    10  C   -0.601521
    11  C    1.004009
    12  C   -1.094694
    13  H    0.126948
    14  H    0.152010
    15  H    0.152011
    16  H    0.126947
    17  H    0.156635
    18  H    0.157970
    19  Cl   0.559120
    20  Cl   0.458311
    21  Cl   0.379307
    22  Cl   0.400761
 Sum of Mulliken charges =  -0.00000

 Dipole moment (field-independent basis, Debye):
    X=             -1.6541    Y=              1.3817    Z=              0.0001  Tot=              2.1552
 Quadrupole moment (field-independent basis, Debye-Ang):
   XX=           -122.5764   YY=           -122.8192   ZZ=           -114.8329
   XY=             -6.2167   XZ=             -0.0012   YZ=             -0.0025

 Normal termination of Gaussian 16 at Tue Mar 15 23:07:31 2022.
