 Gaussian 16, Revision B.01,
 Gaussian 16:  EM64L-G16RevB.01 20-Dec-2017

 --------------------------------
 # opt b3lyp/6-311+g(d,p) scf=xqc
 --------------------------------

 -------------------
 Title Card Required
 -------------------
 Symbolic Z-matrix:
 Charge =  0 Multiplicity = 1

 SCF Done:  E(RB3LYP) =  -2761.45394071     A.U. after   16 cycles
 SCF Done:  E(RB3LYP) =  -2761.49020389     A.U. after   17 cycles
 SCF Done:  E(RB3LYP) =  -2761.49739962     A.U. after   16 cycles
 SCF Done:  E(RB3LYP) =  -2761.50061061     A.U. after   13 cycles
 SCF Done:  E(RB3LYP) =  -2761.50081709     A.U. after   13 cycles
 SCF Done:  E(RB3LYP) =  -2761.50083895     A.U. after   12 cycles
 SCF Done:  E(RB3LYP) =  -2761.50084387     A.U. after   11 cycles
 SCF Done:  E(RB3LYP) =  -2761.50084342     A.U. after   10 cycles
 SCF Done:  E(RB3LYP) =  -2761.50231492     A.U. after   16 cycles
 SCF Done:  E(RB3LYP) =  -2761.41048501     A.U. after   16 cycles
 SCF Done:  E(RB3LYP) =  -2761.51079650     A.U. after   18 cycles
 SCF Done:  E(RB3LYP) =  -2761.51386295     A.U. after   18 cycles
 SCF Done:  E(RB3LYP) =  -2761.51399941     A.U. after   13 cycles
 SCF Done:  E(RB3LYP) =  -2761.51413355     A.U. after   13 cycles
 SCF Done:  E(RB3LYP) =  -2761.51414126     A.U. after   13 cycles
 SCF Done:  E(RB3LYP) =  -2761.51414363     A.U. after   12 cycles
 SCF Done:  E(RB3LYP) =  -2761.51414430     A.U. after   10 cycles
 SCF Done:  E(RB3LYP) =  -2761.51414489     A.U. after   10 cycles
 SCF Done:  E(RB3LYP) =  -2761.51414519     A.U. after   11 cycles
 SCF Done:  E(RB3LYP) =  -2761.51414525     A.U. after   11 cycles
 Optimization completed.
    -- Stationary point found.

                         Standard orientation:
 ---------------------------------------------------------------------
 Center     Atomic      Atomic             Coordinates (Angstroms)
 Number     Number       Type             X           Y           Z
 ---------------------------------------------------------------------
      1          6           0       -0.845003   -0.595344   -0.135765
      2          6           0       -1.492402   -1.466717   -1.017796
      3          6           0       -2.877476   -1.458436   -1.132581
      4          6           0       -3.642236   -0.585185   -0.363141
      5          6           0       -3.004585    0.285436    0.526659
      6          6           0       -1.616911    0.277607    0.634203
      7          6           0        0.636951   -0.647208    0.014872
      8          6           0        1.229026   -1.835033    0.457909
      9          6           0        2.601217   -1.947444    0.622130
     10          6           0        3.422441   -0.861262    0.341594
     11          6           0        2.870696    0.343025   -0.112781
     12          6           0        1.478012    0.438357   -0.275915
     13          1           0       -0.911267   -2.145976   -1.630107
     14          1           0       -3.376211   -2.126865   -1.822656
     15          1           0       -1.145246    0.956507    1.332320
     16          1           0        0.592670   -2.679203    0.694155
     17          1           0        3.043130   -2.870144    0.974277
     18         17           0        0.792677    1.921738   -0.895845
     19         17           0        3.900361    1.693332   -0.480972
     20         17           0       -3.914293    1.393004    1.525470
     21         17           0        5.144175   -1.037392    0.568069
     22         17           0       -5.379476   -0.607217   -0.534623
 ---------------------------------------------------------------------

 The electronic state is 1-A.
 Alpha  occ. eigenvalues -- -101.57617-101.57564-101.57490-101.57058-101.56983
 Alpha  occ. eigenvalues --  -10.27627 -10.27512 -10.27197 -10.26503 -10.26444
 Alpha  occ. eigenvalues --  -10.23029 -10.22207 -10.21585 -10.21483 -10.21209
 Alpha  occ. eigenvalues --  -10.21169 -10.20860  -9.49084  -9.49023  -9.48971
 Alpha  occ. eigenvalues --   -9.48515  -9.48441  -7.25584  -7.25509  -7.25456
 Alpha  occ. eigenvalues --   -7.24996  -7.24923  -7.24567  -7.24504  -7.24482
 Alpha  occ. eigenvalues --   -7.24458  -7.24442  -7.24377  -7.23998  -7.23940
 Alpha  occ. eigenvalues --   -7.23923  -7.23865  -0.95165  -0.93372  -0.90202
 Alpha  occ. eigenvalues --   -0.88258  -0.87413  -0.86310  -0.84981  -0.79068
 Alpha  occ. eigenvalues --   -0.76843  -0.76191  -0.73712  -0.65410  -0.64824
 Alpha  occ. eigenvalues --   -0.63670  -0.60814  -0.55389  -0.53422  -0.52280
 Alpha  occ. eigenvalues --   -0.51100  -0.49511  -0.48128  -0.46623  -0.46167
 Alpha  occ. eigenvalues --   -0.45968  -0.44963  -0.43605  -0.42803  -0.41229
 Alpha  occ. eigenvalues --   -0.39822  -0.39633  -0.38600  -0.36606  -0.36219
 Alpha  occ. eigenvalues --   -0.35447  -0.35221  -0.34365  -0.34190  -0.33939
 Alpha  occ. eigenvalues --   -0.32214  -0.31851  -0.28478  -0.27480  -0.27387
 Alpha  occ. eigenvalues --   -0.25960
 Alpha virt. eigenvalues --   -0.06605  -0.05691  -0.04538  -0.03796  -0.03488
 Alpha virt. eigenvalues --   -0.02027  -0.00815   0.00620   0.01128   0.01774
 Alpha virt. eigenvalues --    0.02085   0.02368   0.02466   0.03376   0.03943

 Mulliken charges:
               1
     1  C    0.898924
     2  C   -0.575723
     3  C   -0.961226
     4  C    0.233030
     5  C    0.558266
     6  C   -2.045579
     7  C    0.689137
     8  C   -0.532522
     9  C   -0.726880
    10  C    0.141938
    11  C   -0.149980
    12  C   -0.940675
    13  H    0.132934
    14  H    0.156391
    15  H    0.158184
    16  H    0.139850
    17  H    0.157315
    18  Cl   0.611317
    19  Cl   0.557643
    20  Cl   0.518865
    21  Cl   0.504691
    22  Cl   0.474100
 Sum of Mulliken charges =  -0.00000

 Dipole moment (field-independent basis, Debye):
    X=              0.4627    Y=             -2.7618    Z=             -0.1704  Tot=              2.8054
 Quadrupole moment (field-independent basis, Debye-Ang):
   XX=           -146.1814   YY=           -125.8118   ZZ=           -131.8604
   XY=             -0.4535   XZ=              3.4418   YZ=              1.6950

 Normal termination of Gaussian 16 at Wed Mar 16 15:07:49 2022.
