 Gaussian 16, Revision B.01,
 Gaussian 16:  EM64L-G16RevB.01 20-Dec-2017

 --------------------------------
 # opt b3lyp/6-311+g(d,p) scf=xqc
 --------------------------------

 -------------------
 Title Card Required
 -------------------
 Symbolic Z-matrix:
 Charge =  0 Multiplicity = 1

 SCF Done:  E(RB3LYP) =  -1842.21993632     A.U. after   16 cycles
 SCF Done:  E(RB3LYP) =  -1842.25678710     A.U. after   16 cycles
 SCF Done:  E(RB3LYP) =  -1842.26348941     A.U. after   14 cycles
 SCF Done:  E(RB3LYP) =  -1842.26662923     A.U. after   14 cycles
 SCF Done:  E(RB3LYP) =  -1842.26682534     A.U. after   12 cycles
 SCF Done:  E(RB3LYP) =  -1842.26684285     A.U. after   12 cycles
 SCF Done:  E(RB3LYP) =  -1842.26684502     A.U. after   11 cycles
 SCF Done:  E(RB3LYP) =  -1842.26684440     A.U. after   10 cycles
 SCF Done:  E(RB3LYP) =  -1842.26979690     A.U. after   16 cycles
 SCF Done:  E(RB3LYP) =  -1842.26810248     A.U. after   16 cycles
 SCF Done:  E(RB3LYP) =  -1842.27634001     A.U. after   16 cycles
 SCF Done:  E(RB3LYP) =  -1842.27938632     A.U. after   17 cycles
 SCF Done:  E(RB3LYP) =  -1842.28026763     A.U. after   15 cycles
 SCF Done:  E(RB3LYP) =  -1842.28060821     A.U. after   15 cycles
 SCF Done:  E(RB3LYP) =  -1842.28069430     A.U. after   13 cycles
 SCF Done:  E(RB3LYP) =  -1842.28072338     A.U. after   14 cycles
 SCF Done:  E(RB3LYP) =  -1842.28072465     A.U. after   12 cycles
 SCF Done:  E(RB3LYP) =  -1842.28072478     A.U. after   11 cycles
 Optimization completed.
    -- Stationary point found.

                         Standard orientation:
 ---------------------------------------------------------------------
 Center     Atomic      Atomic             Coordinates (Angstroms)
 Number     Number       Type             X           Y           Z
 ---------------------------------------------------------------------
      1          6           0       -0.567282    0.864023   -0.118010
      2          6           0       -1.056765    2.052434   -0.673194
      3          6           0       -2.403367    2.205734   -0.982367
      4          6           0       -3.294425    1.167896   -0.739656
      5          6           0       -2.832438   -0.020089   -0.179951
      6          6           0       -1.476544   -0.178551    0.134398
      7          6           0        0.889582    0.761584    0.186399
      8          6           0        1.475548    1.640868    1.103349
      9          6           0        2.843445    1.582691    1.360644
     10          6           0        3.648811    0.655516    0.705155
     11          6           0        3.058502   -0.211052   -0.209993
     12          6           0        1.695496   -0.171864   -0.475621
     13          1           0       -0.357517    2.854641   -0.876303
     14          1           0       -2.760651    3.130855   -1.418657
     15          1           0       -4.345916    1.266124   -0.976224
     16          1           0        0.855933    2.360869    1.624931
     17          1           0        3.287618    2.261952    2.079112
     18          1           0        4.712608    0.603087    0.897485
     19          1           0        1.266583   -0.856603   -1.195299
     20         17           0       -0.926693   -1.659695    0.884406
     21         17           0       -3.990580   -1.294641    0.125652
     22         17           0        4.061860   -1.381903   -1.057232
 ---------------------------------------------------------------------

 The electronic state is 1-A.
 Alpha  occ. eigenvalues -- -101.56627-101.56544-101.55911 -10.26266 -10.26081
 Alpha  occ. eigenvalues --  -10.24935 -10.22083 -10.21231 -10.20618 -10.20283
 Alpha  occ. eigenvalues --  -10.20209 -10.19931 -10.19874 -10.19811 -10.19537
 Alpha  occ. eigenvalues --   -9.48089  -9.48024  -9.47368  -7.24569  -7.24504
 Alpha  occ. eigenvalues --   -7.23827  -7.23573  -7.23513  -7.23512  -7.23436
 Alpha  occ. eigenvalues --   -7.22852  -7.22818  -0.93167  -0.90548  -0.87298
 Alpha  occ. eigenvalues --   -0.86056  -0.84703  -0.79664  -0.75908  -0.74884
 Alpha  occ. eigenvalues --   -0.74307  -0.65892  -0.63090  -0.61867  -0.60077
 Alpha  occ. eigenvalues --   -0.54548  -0.52606  -0.51133  -0.48899  -0.48813
 Alpha  occ. eigenvalues --   -0.46803  -0.45353  -0.45017  -0.44547  -0.42920
 Alpha  occ. eigenvalues --   -0.41148  -0.40551  -0.39302  -0.37914  -0.37648
 Alpha  occ. eigenvalues --   -0.35770  -0.35103  -0.34405  -0.33872  -0.32261
 Alpha  occ. eigenvalues --   -0.31749  -0.28768  -0.26546  -0.26360  -0.25908
 Alpha virt. eigenvalues --   -0.05557  -0.04454  -0.03208  -0.02464  -0.01827
 Alpha virt. eigenvalues --   -0.00689   0.00459   0.01149   0.01921   0.02387
 Alpha virt. eigenvalues --    0.02601   0.02835   0.04151   0.04501   0.04805

 Mulliken charges:
               1
     1  C    1.008381
     2  C   -0.699180
     3  C   -0.243048
     4  C   -0.664681
     5  C    0.387815
     6  C   -1.144889
     7  C    1.050121
     8  C   -0.457389
     9  C   -0.327366
    10  C   -0.594444
    11  C    0.782735
    12  C   -1.528510
    13  H    0.135736
    14  H    0.138157
    15  H    0.154499
    16  H    0.127067
    17  H    0.135673
    18  H    0.150310
    19  H    0.152497
    20  Cl   0.606104
    21  Cl   0.425972
    22  Cl   0.404438
 Sum of Mulliken charges =  -0.00000

 Dipole moment (field-independent basis, Debye):
    X=             -0.2721    Y=              3.4027    Z=              0.0319  Tot=              3.4137
 Quadrupole moment (field-independent basis, Debye-Ang):
   XX=           -106.6233   YY=           -102.7594   ZZ=           -107.8128
   XY=             -1.1879   XZ=              7.3919   YZ=              0.6687

 1\1\GINC-DAMODAR\FOpt\RB3LYP\6-311+G(d,p)\C12H7Cl3\PKC\15-Mar-2022\0\\
 # opt b3lyp/6-311+g(d,p) scf=xqc\\Title Card Required\\0,1\C,-3.588637
 5684,-1.3350409062,0.3823568465\C,-2.5916847147,-1.1610488648,-0.58509
 20481\C,-1.8846479696,0.0313042747,-0.6891053249\C,-2.1603943421,1.080
 4832765,0.1787585018\C,-3.1413354599,0.9276712917,1.1546744864\C,-3.85
 54411615,-0.2725263083,1.2640055946\C,-4.3139492844,-2.6375024092,0.43
 83113723\C,-3.6099182495,-3.8191658434,0.6938592925\C,-4.2707794325,-5
 .0455007328,0.703500483\C,-5.6381976516,-5.1153798937,0.4520680312\C,-

 Normal termination of Gaussian 16 at Tue Mar 15 02:49:36 2022.
