 Gaussian 16, Revision B.01,
 Gaussian 16:  EM64L-G16RevB.01 20-Dec-2017

 --------------------------------
 # opt b3lyp/6-311+g(d,p) scf=xqc
 --------------------------------

 -------------------
 Title Card Required
 -------------------
 Symbolic Z-matrix:
 Charge =  0 Multiplicity = 1

 SCF Done:  E(RB3LYP) =  -2761.39594589     A.U. after   17 cycles
 SCF Done:  E(RB3LYP) =  -2761.46932208     A.U. after   15 cycles
 SCF Done:  E(RB3LYP) =  -2761.47276536     A.U. after   14 cycles
 SCF Done:  E(RB3LYP) =  -2761.45490243     A.U. after   16 cycles
 SCF Done:  E(RB3LYP) =  -2761.47463975     A.U. after   14 cycles
 SCF Done:  E(RB3LYP) =  -2761.47499911     A.U. after   12 cycles
 SCF Done:  E(RB3LYP) =  -2761.47613766     A.U. after   16 cycles
 SCF Done:  E(RB3LYP) =  -2761.44633666     A.U. after   17 cycles
 SCF Done:  E(RB3LYP) =  -2761.45803531     A.U. after   16 cycles
 SCF Done:  E(RB3LYP) =  -2761.47636688     A.U. after   13 cycles
 SCF Done:  E(RB3LYP) =  -2761.50604113     A.U. after   17 cycles
 SCF Done:  E(RB3LYP) =  -2761.50957251     A.U. after   15 cycles
 SCF Done:  E(RB3LYP) =  -2761.51163563     A.U. after   16 cycles
 SCF Done:  E(RB3LYP) =  -2761.51284512     A.U. after   17 cycles
 SCF Done:  E(RB3LYP) =  -2761.51331112     A.U. after   18 cycles
 SCF Done:  E(RB3LYP) =  -2761.51355995     A.U. after   14 cycles
 SCF Done:  E(RB3LYP) =  -2761.51371069     A.U. after   15 cycles
 SCF Done:  E(RB3LYP) =  -2761.51373702     A.U. after   15 cycles
 SCF Done:  E(RB3LYP) =  -2761.51374420     A.U. after   12 cycles
 SCF Done:  E(RB3LYP) =  -2761.51374524     A.U. after   12 cycles
 Optimization completed.
    -- Stationary point found.

                         Standard orientation:
 ---------------------------------------------------------------------
 Center     Atomic      Atomic             Coordinates (Angstroms)
 Number     Number       Type             X           Y           Z
 ---------------------------------------------------------------------
      1          6           0        1.179637   -0.002372    0.495214
      2          6           0        1.657777   -0.004880    1.807247
      3          6           0        3.028999   -0.005575    2.048665
      4          6           0        3.935430   -0.003815    0.991216
      5          6           0        3.445625   -0.001275   -0.310751
      6          6           0        2.080253   -0.000464   -0.572539
      7          6           0       -0.291162   -0.001094    0.225189
      8          6           0       -0.997251   -1.207881    0.095567
      9          6           0       -2.373751   -1.201281   -0.155057
     10          6           0       -3.053730    0.003038   -0.278325
     11          6           0       -2.370361    1.205369   -0.153884
     12          6           0       -0.994020    1.207842    0.097052
     13          1           0        0.959292   -0.006165    2.635535
     14          1           0        3.397911   -0.007479    3.067716
     15          1           0        5.002756   -0.004438    1.170770
     16          1           0        1.723637    0.002057   -1.594629
     17          1           0       -4.117234    0.004680   -0.472301
     18         17           0       -0.136521    2.717955    0.252347
     19         17           0       -3.274192    2.687863   -0.318760
     20         17           0        4.575073    0.001095   -1.658082
     21         17           0       -3.281801   -2.681028   -0.320971
     22         17           0       -0.144384   -2.720845    0.248721
 ---------------------------------------------------------------------

 The electronic state is 1-A.
 Alpha  occ. eigenvalues -- -101.57871-101.57870-101.57658-101.57657-101.56251
 Alpha  occ. eigenvalues --  -10.27681 -10.27679 -10.27556 -10.27556 -10.25337
 Alpha  occ. eigenvalues --  -10.24061 -10.22563 -10.21890 -10.20450 -10.20245
 Alpha  occ. eigenvalues --  -10.20168 -10.19969  -9.49328  -9.49327  -9.49129
 Alpha  occ. eigenvalues --   -9.49129  -9.47708  -7.25819  -7.25818  -7.25620
 Alpha  occ. eigenvalues --   -7.25620  -7.24805  -7.24804  -7.24745  -7.24745
 Alpha  occ. eigenvalues --   -7.24613  -7.24613  -7.24534  -7.24533  -7.24169
 Alpha  occ. eigenvalues --   -7.23191  -7.23156  -0.95843  -0.91983  -0.91131
 Alpha  occ. eigenvalues --   -0.89139  -0.87660  -0.85658  -0.83992  -0.80013
 Alpha  occ. eigenvalues --   -0.76357  -0.75036  -0.74161  -0.67405  -0.63183
 Alpha  occ. eigenvalues --   -0.62282  -0.60995  -0.54783  -0.54729  -0.53166
 Alpha  occ. eigenvalues --   -0.49966  -0.49538  -0.47815  -0.46899  -0.45930
 Alpha  occ. eigenvalues --   -0.45563  -0.44880  -0.43086  -0.42903  -0.41010
 Alpha  occ. eigenvalues --   -0.40770  -0.38683  -0.38612  -0.37353  -0.36154
 Alpha  occ. eigenvalues --   -0.35447  -0.35171  -0.34443  -0.33153  -0.32922
 Alpha  occ. eigenvalues --   -0.32589  -0.32586  -0.28202  -0.28045  -0.26546
 Alpha  occ. eigenvalues --   -0.26392
 Alpha virt. eigenvalues --   -0.06119  -0.05785  -0.04359  -0.04120  -0.03636
 Alpha virt. eigenvalues --   -0.00805  -0.00789   0.00247   0.00778   0.01434
 Alpha virt. eigenvalues --    0.01941   0.02535   0.02671   0.03026   0.04268

 Mulliken charges:
               1
     1  C    0.483492
     2  C   -0.675193
     3  C   -0.473870
     4  C   -0.516444
     5  C    0.619568
     6  C   -1.135216
     7  C    0.065987
     8  C   -0.905643
     9  C    0.386527
    10  C   -0.623078
    11  C    0.390992
    12  C   -0.910116
    13  H    0.124449
    14  H    0.137535
    15  H    0.150729
    16  H    0.135439
    17  H    0.173144
    18  Cl   0.590875
    19  Cl   0.486777
    20  Cl   0.416744
    21  Cl   0.486970
    22  Cl   0.590333
 Sum of Mulliken charges =  -0.00000

 Dipole moment (field-independent basis, Debye):
    X=             -0.3605    Y=             -0.0018    Z=              1.4750  Tot=              1.5184
 Quadrupole moment (field-independent basis, Debye-Ang):
   XX=           -129.1369   YY=           -138.6618   ZZ=           -127.9743
   XY=             -0.0200   XZ=              7.2503   YZ=             -0.0199

 1\1\GINC-DAMODAR\FOpt\RB3LYP\6-311+G(d,p)\C12H5Cl5\PKC\16-Mar-2022\0\\
 # opt b3lyp/6-311+g(d,p) scf=xqc\\Title Card Required\\0,1\C,-0.735279
 5441,1.8228397376,-0.1282458184\C,0.5138711656,1.8811477817,0.49326812
 13\C,1.2187197633,3.081345184,0.5285739785\C,0.690130473,4.2317393649,
 -0.0519470673\C,-0.5551334978,4.1596773136,-0.6677064963\C,-1.27449792
 18,2.9708964716,-0.713409604\C,-1.5005914343,0.538853881,-0.1711665416
 \C,-1.3326300727,-0.3605321696,-1.2363396044\C,-2.0495660376,-1.561541
 5943,-1.2707940111\C,-2.9358335744,-1.8734962312,-0.2484607934\C,-3.11

 Normal termination of Gaussian 16 at Wed Mar 16 20:02:44 2022.
