 Gaussian 16, Revision B.01,
 Gaussian 16:  EM64L-G16RevB.01 20-Dec-2017

 --------------------------------
 # opt b3lyp/6-311+g(d,p) scf=xqc
 --------------------------------

 -------------------
 Title Card Required
 -------------------
 Symbolic Z-matrix:
 Charge =  0 Multiplicity = 1

 SCF Done:  E(RB3LYP) =  -1842.21206093     A.U. after   16 cycles
 SCF Done:  E(RB3LYP) =  -1842.25088902     A.U. after   16 cycles
 SCF Done:  E(RB3LYP) =  -1842.25729262     A.U. after   15 cycles
 SCF Done:  E(RB3LYP) =  -1842.26060216     A.U. after   13 cycles
 SCF Done:  E(RB3LYP) =  -1842.26081844     A.U. after   12 cycles
 SCF Done:  E(RB3LYP) =  -1842.26084049     A.U. after   12 cycles
 SCF Done:  E(RB3LYP) =  -1842.26084578     A.U. after   11 cycles
 SCF Done:  E(RB3LYP) =  -1842.26084535     A.U. after   10 cycles
 SCF Done:  E(RB3LYP) =  -1842.26401599     A.U. after   16 cycles
 SCF Done:  E(RB3LYP) =  -1842.26994205     A.U. after   16 cycles
 SCF Done:  E(RB3LYP) =  -1842.27339345     A.U. after   16 cycles
 SCF Done:  E(RB3LYP) =  -1842.27419688     A.U. after   15 cycles
 SCF Done:  E(RB3LYP) =  -1842.27444537     A.U. after   13 cycles
 SCF Done:  E(RB3LYP) =  -1842.27457213     A.U. after   13 cycles
 SCF Done:  E(RB3LYP) =  -1842.27461675     A.U. after   13 cycles
 SCF Done:  E(RB3LYP) =  -1842.27462623     A.U. after   12 cycles
 SCF Done:  E(RB3LYP) =  -1842.27462712     A.U. after   11 cycles
 SCF Done:  E(RB3LYP) =  -1842.27462746     A.U. after   11 cycles
 SCF Done:  E(RB3LYP) =  -1842.27462762     A.U. after   11 cycles
 Optimization completed.
    -- Stationary point found.

                         Standard orientation:
 ---------------------------------------------------------------------
 Center     Atomic      Atomic             Coordinates (Angstroms)
 Number     Number       Type             X           Y           Z
 ---------------------------------------------------------------------
      1          6           0       -0.539495   -0.536700   -0.052454
      2          6           0        0.006844   -1.820416   -0.164034
      3          6           0        1.376993   -2.032403   -0.186262
      4          6           0        2.245101   -0.950578   -0.094509
      5          6           0        1.741229    0.349784    0.028418
      6          6           0        0.349430    0.544865    0.051980
      7          6           0       -2.022581   -0.383569   -0.041910
      8          6           0       -2.778497   -1.001860    0.960998
      9          6           0       -4.169193   -0.910484    0.959622
     10          6           0       -4.822265   -0.206795   -0.049585
     11          6           0       -4.077404    0.406595   -1.056392
     12          6           0       -2.688108    0.321725   -1.051996
     13          1           0       -0.665138   -2.665390   -0.252347
     14          1           0        1.781779   -3.031291   -0.282092
     15          1           0       -2.273451   -1.544354    1.752578
     16          1           0       -4.739829   -1.387345    1.748566
     17          1           0       -5.904043   -0.136447   -0.052812
     18          1           0       -4.578884    0.950970   -1.848604
     19          1           0       -2.116654    0.798200   -1.839830
     20         17           0       -0.278374    2.162957    0.263953
     21         17           0        2.829088    1.699793    0.162641
     22         17           0        3.964810   -1.254828   -0.135340
 ---------------------------------------------------------------------

 The electronic state is 1-A.
 Alpha  occ. eigenvalues -- -101.56973-101.56936-101.56669 -10.26870 -10.26647
 Alpha  occ. eigenvalues --  -10.26423 -10.22006 -10.20806 -10.20586 -10.20379
 Alpha  occ. eigenvalues --  -10.19029 -10.18939 -10.18863 -10.18815 -10.18766
 Alpha  occ. eigenvalues --   -9.48441  -9.48395  -9.48151  -7.24938  -7.24879
 Alpha  occ. eigenvalues --   -7.24634  -7.23925  -7.23876  -7.23840  -7.23817
 Alpha  occ. eigenvalues --   -7.23639  -7.23557  -0.94332  -0.89550  -0.87973
 Alpha  occ. eigenvalues --   -0.86427  -0.84526  -0.78886  -0.76290  -0.75392
 Alpha  occ. eigenvalues --   -0.73484  -0.64397  -0.63558  -0.61915  -0.60042
 Alpha  occ. eigenvalues --   -0.54662  -0.52358  -0.51580  -0.48590  -0.47226
 Alpha  occ. eigenvalues --   -0.46891  -0.45835  -0.44664  -0.44203  -0.43612
 Alpha  occ. eigenvalues --   -0.41210  -0.40575  -0.38310  -0.37789  -0.36632
 Alpha  occ. eigenvalues --   -0.36347  -0.35518  -0.34487  -0.33643  -0.33338
 Alpha  occ. eigenvalues --   -0.31201  -0.27924  -0.26992  -0.26685  -0.25340
 Alpha virt. eigenvalues --   -0.05400  -0.04752  -0.03274  -0.02530  -0.01996
 Alpha virt. eigenvalues --   -0.00512   0.00767   0.01635   0.01971   0.02492
 Alpha virt. eigenvalues --    0.02942   0.03107   0.04009   0.04456   0.04862

 Mulliken charges:
               1
     1  C    0.530020
     2  C   -0.578052
     3  C   -0.789521
     4  C    0.056153
     5  C   -0.026633
     6  C   -0.841084
     7  C    1.109870
     8  C   -0.548490
     9  C   -0.156064
    10  C   -0.179230
    11  C   -0.295453
    12  C   -0.838250
    13  H    0.139385
    14  H    0.155273
    15  H    0.123592
    16  H    0.128927
    17  H    0.129477
    18  H    0.129911
    19  H    0.128844
    20  Cl   0.566184
    21  Cl   0.568083
    22  Cl   0.487058
 Sum of Mulliken charges =  -0.00000

 Dipole moment (field-independent basis, Debye):
    X=             -2.3578    Y=             -1.8801    Z=             -0.2465  Tot=              3.0257
 Quadrupole moment (field-independent basis, Debye-Ang):
   XX=           -103.7725   YY=           -104.4643   ZZ=           -106.7532
   XY=             -0.5306   XZ=             -0.0774   YZ=             -3.1648

 1\1\GINC-DAMODAR\FOpt\RB3LYP\6-311+G(d,p)\C12H7Cl3\PKC\15-Mar-2022\0\\
 # opt b3lyp/6-311+g(d,p) scf=xqc\\Title Card Required\\0,1\C,-4.278603
 1444,-1.6335231954,-0.3464208417\C,-3.2442590248,-1.4631317786,-1.2737
 625959\C,-2.5296537903,-0.2781254003,-1.3623110363\C,-2.8358796021,0.7
 78527199,-0.5125551544\C,-3.8565507014,0.6474356408,0.4366477679\C,-4.
 5681569111,-0.5622846533,0.5135119718\C,-5.0086008524,-2.9331580629,-0
 .3124462155\C,-4.3107530901,-4.1159506715,-0.0412855664\C,-4.966721362
 9,-5.3455645149,-0.0532263088\C,-6.3272553746,-5.4089675439,-0.3449584

 Normal termination of Gaussian 16 at Tue Mar 15 03:15:25 2022.
