 Gaussian 16, Revision B.01,
 Gaussian 16:  EM64L-G16RevB.01 20-Dec-2017

 --------------------------------
 # opt b3lyp/6-311+g(d,p) scf=xqc
 --------------------------------

 -------------------
 Title Card Required
 -------------------
 Symbolic Z-matrix:
 Charge =  0 Multiplicity = 1

 SCF Done:  E(RB3LYP) =  -2301.83541049     A.U. after   16 cycles
 SCF Done:  E(RB3LYP) =  -2301.87342614     A.U. after   16 cycles
 SCF Done:  E(RB3LYP) =  -2301.88009516     A.U. after   16 cycles
 SCF Done:  E(RB3LYP) =  -2301.88335914     A.U. after   13 cycles
 SCF Done:  E(RB3LYP) =  -2301.88357264     A.U. after   12 cycles
 SCF Done:  E(RB3LYP) =  -2301.88359354     A.U. after   12 cycles
 SCF Done:  E(RB3LYP) =  -2301.88359865     A.U. after   11 cycles
 SCF Done:  E(RB3LYP) =  -2301.88359824     A.U. after   10 cycles
 SCF Done:  E(RB3LYP) =  -2301.88674487     A.U. after   16 cycles
 SCF Done:  E(RB3LYP) =  -2301.89251316     A.U. after   17 cycles
 SCF Done:  E(RB3LYP) =  -2301.89584027     A.U. after   18 cycles
 SCF Done:  E(RB3LYP) =  -2301.89661356     A.U. after   16 cycles
 SCF Done:  E(RB3LYP) =  -2301.89684860     A.U. after   14 cycles
 SCF Done:  E(RB3LYP) =  -2301.89697354     A.U. after   13 cycles
 SCF Done:  E(RB3LYP) =  -2301.89701470     A.U. after   13 cycles
 SCF Done:  E(RB3LYP) =  -2301.89702260     A.U. after   12 cycles
 SCF Done:  E(RB3LYP) =  -2301.89702406     A.U. after   12 cycles
 SCF Done:  E(RB3LYP) =  -2301.89702425     A.U. after   12 cycles
 SCF Done:  E(RB3LYP) =  -2301.89702433     A.U. after   11 cycles
 Optimization completed.
    -- Stationary point found.

                         Standard orientation:
 ---------------------------------------------------------------------
 Center     Atomic      Atomic             Coordinates (Angstroms)
 Number     Number       Type             X           Y           Z
 ---------------------------------------------------------------------
      1          6           0       -1.300043   -0.366320   -0.032157
      2          6           0       -2.060148   -0.990158    0.963224
      3          6           0       -3.449708   -0.894348    0.973407
      4          6           0       -4.084823   -0.171709   -0.029928
      5          6           0       -3.353967    0.453408   -1.036093
      6          6           0       -1.966539    0.355208   -1.029548
      7          6           0        0.181219   -0.528952   -0.048082
      8          6           0        0.719129   -1.815912   -0.163119
      9          6           0        2.087937   -2.035418   -0.189471
     10          6           0        2.962599   -0.958672   -0.099033
     11          6           0        2.466760    0.344745    0.026832
     12          6           0        1.076303    0.547831    0.054869
     13          1           0       -1.562214   -1.546442    1.749291
     14          1           0       -4.030310   -1.372070    1.752080
     15          1           0       -3.863518    1.006870   -1.814353
     16          1           0       -1.399465    0.839129   -1.815566
     17          1           0        0.042625   -2.657255   -0.251833
     18          1           0        2.486652   -3.036443   -0.288019
     19         17           0        0.458181    2.168921    0.270921
     20         17           0        3.562120    1.687986    0.159064
     21         17           0        4.679615   -1.272495   -0.145404
     22         17           0       -5.837921   -0.047472   -0.030287
 ---------------------------------------------------------------------

 The electronic state is 1-A.
 Alpha  occ. eigenvalues -- -101.57361-101.57307-101.57168-101.56298 -10.27316
 Alpha  occ. eigenvalues --  -10.27147 -10.26869 -10.25286 -10.22592 -10.21294
 Alpha  occ. eigenvalues --  -10.21258 -10.21098 -10.20339 -10.20263 -10.20260
 Alpha  occ. eigenvalues --  -10.20204  -9.48828  -9.48765  -9.48649  -9.47755
 Alpha  occ. eigenvalues --   -7.25327  -7.25250  -7.25133  -7.24312  -7.24247
 Alpha  occ. eigenvalues --   -7.24227  -7.24214  -7.24186  -7.24137  -7.24056
 Alpha  occ. eigenvalues --   -7.23240  -7.23204  -0.94807  -0.91058  -0.89747
 Alpha  occ. eigenvalues --   -0.87777  -0.85813  -0.84623  -0.78540  -0.77848
 Alpha  occ. eigenvalues --   -0.75867  -0.73248  -0.64698  -0.64404  -0.63241
 Alpha  occ. eigenvalues --   -0.60628  -0.55319  -0.52923  -0.51637  -0.49422
 Alpha  occ. eigenvalues --   -0.49058  -0.47755  -0.46295  -0.45483  -0.45329
 Alpha  occ. eigenvalues --   -0.44539  -0.42169  -0.41587  -0.40569  -0.38573
 Alpha  occ. eigenvalues --   -0.38459  -0.38018  -0.36185  -0.35070  -0.34905
 Alpha  occ. eigenvalues --   -0.34013  -0.33636  -0.32614  -0.31569  -0.28297
 Alpha  occ. eigenvalues --   -0.27856  -0.27135  -0.25441
 Alpha virt. eigenvalues --   -0.06077  -0.05283  -0.03952  -0.03439  -0.02858
 Alpha virt. eigenvalues --   -0.00983   0.00442   0.00837   0.01335   0.01772
 Alpha virt. eigenvalues --    0.02253   0.02676   0.03236   0.04017   0.04268

 Mulliken charges:
               1
     1  C    1.169600
     2  C   -0.618847
     3  C   -0.721761
     4  C    0.896171
     5  C   -0.769720
     6  C   -1.006745
     7  C    0.390205
     8  C   -0.510752
     9  C   -0.771310
    10  C    0.036719
    11  C    0.001621
    12  C   -0.960301
    13  H    0.131313
    14  H    0.151728
    15  H    0.152543
    16  H    0.137164
    17  H    0.139718
    18  H    0.156473
    19  Cl   0.570647
    20  Cl   0.564206
    21  Cl   0.490331
    22  Cl   0.370996
 Sum of Mulliken charges =  -0.00000

 Dipole moment (field-independent basis, Debye):
    X=             -0.3581    Y=             -1.9761    Z=             -0.2385  Tot=              2.0224
 Quadrupole moment (field-independent basis, Debye-Ang):
   XX=           -133.6245   YY=           -115.3411   ZZ=           -117.7042
   XY=             -1.6920   XZ=             -0.3837   YZ=             -3.5867

 1\1\GINC-DAMODAR\FOpt\RB3LYP\6-311+G(d,p)\C12H6Cl4\PKC\15-Mar-2022\0\\
 # opt b3lyp/6-311+g(d,p) scf=xqc\\Title Card Required\\0,1\C,-0.084093
 3185,-0.4208976719,-0.0090430267\C,0.8788764318,-0.2090394123,-1.00177
 83032\C,1.6302514748,0.9632985285,-1.0366882379\C,1.419464973,1.930591
 1202,-0.0608948571\C,0.4728039227,1.7432665871,0.9421162699\C,-0.27522
 95351,0.5707662849,0.960326797\C,-0.836524381,-1.7065014776,0.03465025
 93\C,-0.1248559134,-2.901803605,0.1883671239\C,-0.764692245,-4.1307245
 046,0.2419885039\C,-2.149726068,-4.1939905038,0.1406333116\C,-2.899585

 Normal termination of Gaussian 16 at Tue Mar 15 22:46:22 2022.
