 Gaussian 16, Revision B.01,
 Gaussian 16:  EM64L-G16RevB.01 20-Dec-2017

 --------------------------------
 # opt b3lyp/6-311+g(d,p) scf=xqc
 --------------------------------

 -------------------
 Title Card Required
 -------------------
 Symbolic Z-matrix:
 Charge =  0 Multiplicity = 1

 SCF Done:  E(RB3LYP) =  -2761.40327855     A.U. after   17 cycles
 SCF Done:  E(RB3LYP) =  -2761.47806238     A.U. after   16 cycles
 SCF Done:  E(RB3LYP) =  -2761.48333329     A.U. after   15 cycles
 SCF Done:  E(RB3LYP) =  -2761.47348327     A.U. after   15 cycles
 SCF Done:  E(RB3LYP) =  -2761.48444782     A.U. after   13 cycles
 SCF Done:  E(RB3LYP) =  -2761.48462755     A.U. after   12 cycles
 SCF Done:  E(RB3LYP) =  -2761.48483669     A.U. after   13 cycles
 SCF Done:  E(RB3LYP) =  -2761.46415208     A.U. after   18 cycles
 SCF Done:  E(RB3LYP) =  -2761.22776343     A.U. after   17 cycles
 SCF Done:  E(RB3LYP) =  -2761.27141355     A.U. after   16 cycles
 SCF Done:  E(RB3LYP) =  -2761.51882368     A.U. after   16 cycles
 SCF Done:  E(RB3LYP) =  -2761.51902230     A.U. after   18 cycles
 SCF Done:  E(RB3LYP) =  -2761.51920742     A.U. after   14 cycles
 SCF Done:  E(RB3LYP) =  -2761.51926745     A.U. after   12 cycles
 SCF Done:  E(RB3LYP) =  -2761.51928183     A.U. after   13 cycles
 SCF Done:  E(RB3LYP) =  -2761.51928618     A.U. after   13 cycles
 SCF Done:  E(RB3LYP) =  -2761.51929696     A.U. after   14 cycles
 SCF Done:  E(RB3LYP) =  -2761.51929853     A.U. after   12 cycles
 SCF Done:  E(RB3LYP) =  -2761.51929873     A.U. after   10 cycles
 SCF Done:  E(RB3LYP) =  -2761.51929878     A.U. after   10 cycles
 Optimization completed.
    -- Stationary point found.

                         Standard orientation:
 ---------------------------------------------------------------------
 Center     Atomic      Atomic             Coordinates (Angstroms)
 Number     Number       Type             X           Y           Z
 ---------------------------------------------------------------------
      1          6           0       -0.554928   -0.146455    0.000050
      2          6           0       -1.236036   -0.001838    1.210216
      3          6           0       -2.595793    0.286654    1.191805
      4          6           0       -3.297068    0.435155   -0.000094
      5          6           0       -2.595849    0.285797   -1.191919
      6          6           0       -1.236090   -0.002690   -1.210183
      7          6           0        0.905503   -0.464147    0.000120
      8          6           0        1.362496   -1.787898    0.000500
      9          6           0        2.718994   -2.096302    0.000550
     10          6           0        3.653249   -1.071335    0.000264
     11          6           0        3.236841    0.256559   -0.000085
     12          6           0        1.870696    0.559383   -0.000193
     13          1           0       -0.716080   -0.112015    2.152590
     14          1           0       -4.354554    0.659456   -0.000155
     15          1           0       -0.716165   -0.113508   -2.152501
     16          1           0        3.038231   -3.129947    0.000800
     17          1           0        4.711976   -1.295472    0.000311
     18         17           0        1.344102    2.222880   -0.000750
     19         17           0        4.449971    1.511626   -0.000380
     20         17           0       -3.455359    0.466964   -2.711473
     21         17           0       -3.455225    0.468937    2.711270
     22         17           0        0.213246   -3.113101    0.000910
 ---------------------------------------------------------------------

 The electronic state is 1-A.
 Alpha  occ. eigenvalues -- -101.57622-101.57588-101.57421-101.56842-101.56842
 Alpha  occ. eigenvalues --  -10.27682 -10.27108 -10.27021 -10.26215 -10.26214
 Alpha  occ. eigenvalues --  -10.23789 -10.22641 -10.22068 -10.21779 -10.21202
 Alpha  occ. eigenvalues --  -10.20871 -10.20870  -9.49094  -9.49047  -9.48888
 Alpha  occ. eigenvalues --   -9.48298  -9.48298  -7.25582  -7.25533  -7.25361
 Alpha  occ. eigenvalues --   -7.24766  -7.24766  -7.24580  -7.24526  -7.24500
 Alpha  occ. eigenvalues --   -7.24468  -7.24371  -7.24317  -7.23778  -7.23778
 Alpha  occ. eigenvalues --   -7.23741  -7.23741  -0.95003  -0.92627  -0.90610
 Alpha  occ. eigenvalues --   -0.88894  -0.88330  -0.85128  -0.84367  -0.79967
 Alpha  occ. eigenvalues --   -0.76177  -0.75629  -0.74565  -0.67453  -0.63128
 Alpha  occ. eigenvalues --   -0.62510  -0.61400  -0.55067  -0.53464  -0.53388
 Alpha  occ. eigenvalues --   -0.51696  -0.49682  -0.47841  -0.46553  -0.46226
 Alpha  occ. eigenvalues --   -0.45730  -0.44598  -0.43192  -0.42667  -0.41353
 Alpha  occ. eigenvalues --   -0.39986  -0.39647  -0.39361  -0.37778  -0.36755
 Alpha  occ. eigenvalues --   -0.35032  -0.34467  -0.33577  -0.33527  -0.33336
 Alpha  occ. eigenvalues --   -0.32870  -0.32361  -0.28617  -0.27793  -0.26771
 Alpha  occ. eigenvalues --   -0.26574
 Alpha virt. eigenvalues --   -0.05805  -0.05646  -0.05044  -0.04187  -0.03304
 Alpha virt. eigenvalues --   -0.01295  -0.00579  -0.00035   0.00922   0.01701
 Alpha virt. eigenvalues --    0.02044   0.02112   0.02208   0.02612   0.04200

 Mulliken charges:
               1
     1  C    0.116633
     2  C   -1.287128
     3  C    0.532642
     4  C   -0.899544
     5  C    0.532602
     6  C   -1.287032
     7  C    0.213154
     8  C    0.133661
     9  C   -0.453015
    10  C   -0.602530
    11  C    1.131977
    12  C   -1.189635
    13  H    0.141733
    14  H    0.171156
    15  H    0.141734
    16  H    0.157807
    17  H    0.159672
    18  Cl   0.563699
    19  Cl   0.460950
    20  Cl   0.420270
    21  Cl   0.420266
    22  Cl   0.420929
 Sum of Mulliken charges =  -0.00000

 Dipole moment (field-independent basis, Debye):
    X=              1.7992    Y=             -1.4151    Z=              0.0003  Tot=              2.2891
 Quadrupole moment (field-independent basis, Debye-Ang):
   XX=           -128.0939   YY=           -133.3237   ZZ=           -134.9925
   XY=             -7.4763   XZ=              0.0019   YZ=             -0.0003

 1\1\GINC-DAMODAR\FOpt\RB3LYP\6-311+G(d,p)\C12H5Cl5\PKC\16-Mar-2022\0\\
 # opt b3lyp/6-311+g(d,p) scf=xqc\\Title Card Required\\0,1\C,-0.168766
 6304,-0.9852412753,0.0164595304\C,0.5832742186,-0.6227501857,-1.102629
 1943\C,1.2925944062,0.5726623913,-1.0837011493\C,1.2738297691,1.418193
 8196,0.020466332\C,0.5174955319,1.0342151302,1.1227282141\C,-0.2037638
 26,-0.1540866914,1.1377408518\C,-0.9317692042,-2.270391974,0.017269079
 1\C,-0.3510820099,-3.4614195785,0.4704967377\C,-1.0508756303,-4.663691
 1197,0.4761945637\C,-2.3609938281,-4.6944545172,0.0222841525\C,-2.9715

 Normal termination of Gaussian 16 at Wed Mar 16 21:20:45 2022.
