 Gaussian 16, Revision B.01,
 Gaussian 16:  EM64L-G16RevB.01 20-Dec-2017

 --------------------------------
 # opt b3lyp/6-311+g(d,p) scf=xqc
 --------------------------------

 -------------------
 Title Card Required
 -------------------
 Symbolic Z-matrix:
 Charge =  0 Multiplicity = 1

 SCF Done:  E(RB3LYP) =  -3221.01759926     A.U. after   16 cycles
 SCF Done:  E(RB3LYP) =  -3221.09121783     A.U. after   14 cycles
 SCF Done:  E(RB3LYP) =  -3221.09685089     A.U. after   14 cycles
 SCF Done:  E(RB3LYP) =  -3221.08719778     A.U. after   16 cycles
 SCF Done:  E(RB3LYP) =  -3221.09797948     A.U. after   13 cycles
 SCF Done:  E(RB3LYP) =  -3221.09815423     A.U. after   12 cycles
 SCF Done:  E(RB3LYP) =  -3221.09833751     A.U. after   13 cycles
 SCF Done:  E(RB3LYP) =  -3221.08727363     A.U. after   17 cycles
 SCF Done:  E(RB3LYP) =  -3221.02170040     A.U. after   15 cycles
 SCF Done:  E(RB3LYP) =  -3221.00053352     A.U. after   16 cycles
 SCF Done:  E(RB3LYP) =  -3221.12165415     A.U. after   18 cycles
 SCF Done:  E(RB3LYP) =  -3221.12965742     A.U. after   16 cycles
 SCF Done:  E(RB3LYP) =  -3221.13043014     A.U. after   15 cycles
 SCF Done:  E(RB3LYP) =  -3221.13134516     A.U. after   15 cycles
 SCF Done:  E(RB3LYP) =  -3221.13148445     A.U. after   13 cycles
 SCF Done:  E(RB3LYP) =  -3221.13157422     A.U. after   14 cycles
 SCF Done:  E(RB3LYP) =  -3221.13165354     A.U. after   14 cycles
 SCF Done:  E(RB3LYP) =  -3221.13166623     A.U. after   13 cycles
 SCF Done:  E(RB3LYP) =  -3221.13166787     A.U. after   12 cycles
 SCF Done:  E(RB3LYP) =  -3221.13166820     A.U. after   11 cycles
 Optimization completed.
    -- Stationary point found.

                         Standard orientation:
 ---------------------------------------------------------------------
 Center     Atomic      Atomic             Coordinates (Angstroms)
 Number     Number       Type             X           Y           Z
 ---------------------------------------------------------------------
      1          6           0        0.098026    0.222166    0.001387
      2          6           0        0.789734    0.094929    1.204047
      3          6           0        2.162054   -0.128514    1.201519
      4          6           0        2.873713   -0.229654   -0.001928
      5          6           0        2.164034   -0.098637   -1.203553
      6          6           0        0.791618    0.124941   -1.202850
      7          6           0       -1.375142    0.469548    0.003937
      8          6           0       -1.894050    1.770299    0.017116
      9          6           0       -3.263574    2.014211    0.019448
     10          6           0       -4.148183    0.946197    0.008677
     11          6           0       -3.669731   -0.360628   -0.004204
     12          6           0       -2.290799   -0.598588   -0.006514
     13          1           0        0.269149    0.168324    2.149656
     14          1           0        0.272859    0.221845   -2.147302
     15          1           0       -3.631340    3.031542    0.029674
     16          1           0       -5.216330    1.120071    0.010240
     17         17           0       -1.686225   -2.235150   -0.022365
     18         17           0       -4.821902   -1.671388   -0.017174
     19         17           0        2.981009   -0.211706   -2.742402
     20         17           0        4.586916   -0.508514   -0.003969
     21         17           0        2.976606   -0.279753    2.738375
     22         17           0       -0.808200    3.147723    0.031960
 ---------------------------------------------------------------------

 The electronic state is 1-A.
 Alpha  occ. eigenvalues -- -101.57852-101.57769-101.57649-101.57502-101.57370
 Alpha  occ. eigenvalues -- -101.57369 -10.27916 -10.27394 -10.27317 -10.27255
 Alpha  occ. eigenvalues --  -10.27130 -10.27124 -10.24055 -10.22906 -10.22284
 Alpha  occ. eigenvalues --  -10.21991 -10.21511 -10.21509  -9.49324  -9.49227
 Alpha  occ. eigenvalues --   -9.49116  -9.48963  -9.48828  -9.48828  -7.25812
 Alpha  occ. eigenvalues --   -7.25714  -7.25589  -7.25463  -7.25316  -7.25315
 Alpha  occ. eigenvalues --   -7.24810  -7.24730  -7.24705  -7.24647  -7.24599
 Alpha  occ. eigenvalues --   -7.24545  -7.24445  -7.24363  -7.24307  -7.24307
 Alpha  occ. eigenvalues --   -7.24247  -7.24247  -0.95435  -0.94584  -0.90906
 Alpha  occ. eigenvalues --   -0.89788  -0.88745  -0.87459  -0.85503  -0.84611
 Alpha  occ. eigenvalues --   -0.79824  -0.76205  -0.75540  -0.74529  -0.67084
 Alpha  occ. eigenvalues --   -0.63911  -0.63274  -0.61498  -0.55219  -0.53627
 Alpha  occ. eigenvalues --   -0.53285  -0.53122  -0.49801  -0.48279  -0.46844
 Alpha  occ. eigenvalues --   -0.46646  -0.46395  -0.44946  -0.44901  -0.43418
 Alpha  occ. eigenvalues --   -0.41774  -0.41058  -0.40591  -0.39659  -0.38452
 Alpha  occ. eigenvalues --   -0.36982  -0.36404  -0.35228  -0.34981  -0.34593
 Alpha  occ. eigenvalues --   -0.33916  -0.33779  -0.33594  -0.32604  -0.31806
 Alpha  occ. eigenvalues --   -0.28864  -0.27237  -0.27051  -0.26826
 Alpha virt. eigenvalues --   -0.06089  -0.05950  -0.05415  -0.04802  -0.03941
 Alpha virt. eigenvalues --   -0.03031  -0.00849  -0.00209   0.01023   0.01551
 Alpha virt. eigenvalues --    0.01880   0.01901   0.02197   0.02381   0.03076

 Mulliken charges:
               1
     1  C    0.142599
     2  C   -1.302923
     3  C   -0.363326
     4  C    0.012063
     5  C   -0.359841
     6  C   -1.302589
     7  C    0.180344
     8  C    0.264162
     9  C   -0.517364
    10  C   -0.559937
    11  C    1.040303
    12  C   -1.048978
    13  H    0.145159
    14  H    0.145143
    15  H    0.157684
    16  H    0.160050
    17  Cl   0.589023
    18  Cl   0.462462
    19  Cl   0.545469
    20  Cl   0.624292
    21  Cl   0.545723
    22  Cl   0.440482
 Sum of Mulliken charges =  -0.00000

 Dipole moment (field-independent basis, Debye):
    X=             -2.8536    Y=              1.4828    Z=              0.0135  Tot=              3.2159
 Quadrupole moment (field-independent basis, Debye-Ang):
   XX=           -142.3735   YY=           -145.3761   ZZ=           -144.7721
   XY=             -7.2267   XZ=             -0.0720   YZ=             -0.0137

 Normal termination of Gaussian 16 at Fri Mar 25 06:04:34 2022.
