 Gaussian 16, Revision B.01,
 Gaussian 16:  EM64L-G16RevB.01 20-Dec-2017

 --------------------------------
 # opt b3lyp/6-311+g(d,p) scf=xqc
 --------------------------------

 -------------------
 Title Card Required
 -------------------
 Symbolic Z-matrix:
 Charge =  0 Multiplicity = 1

 SCF Done:  E(RB3LYP) =  -2761.40035596     A.U. after   17 cycles
 SCF Done:  E(RB3LYP) =  -2761.47535629     A.U. after   15 cycles
 SCF Done:  E(RB3LYP) =  -2761.48083954     A.U. after   14 cycles
 SCF Done:  E(RB3LYP) =  -2761.47234911     A.U. after   14 cycles
 SCF Done:  E(RB3LYP) =  -2761.48189641     A.U. after   13 cycles
 SCF Done:  E(RB3LYP) =  -2761.48209802     A.U. after   12 cycles
 SCF Done:  E(RB3LYP) =  -2761.48242633     A.U. after   13 cycles
 SCF Done:  E(RB3LYP) =  -2761.46092856     A.U. after   17 cycles
 SCF Done:  E(RB3LYP) =  -2761.10104296     A.U. after   18 cycles
 SCF Done:  E(RB3LYP) =  -2760.95118629     A.U. after   19 cycles
 SCF Done:  E(RB3LYP) =  -2761.51416197     A.U. after   15 cycles
 SCF Done:  E(RB3LYP) =  -2761.51500584     A.U. after   15 cycles
 SCF Done:  E(RB3LYP) =  -2761.51541201     A.U. after   15 cycles
 SCF Done:  E(RB3LYP) =  -2761.51556883     A.U. after   15 cycles
 SCF Done:  E(RB3LYP) =  -2761.51568293     A.U. after   15 cycles
 SCF Done:  E(RB3LYP) =  -2761.51573077     A.U. after   15 cycles
 SCF Done:  E(RB3LYP) =  -2761.51576172     A.U. after   14 cycles
 SCF Done:  E(RB3LYP) =  -2761.51576761     A.U. after   12 cycles
 SCF Done:  E(RB3LYP) =  -2761.51577032     A.U. after   12 cycles
 SCF Done:  E(RB3LYP) =  -2761.51577083     A.U. after   12 cycles
 Optimization completed.
    -- Stationary point found.

                         Standard orientation:
 ---------------------------------------------------------------------
 Center     Atomic      Atomic             Coordinates (Angstroms)
 Number     Number       Type             X           Y           Z
 ---------------------------------------------------------------------
      1          6           0        0.363546    0.211149    0.307046
      2          6           0        0.922998    0.158527    1.585610
      3          6           0        2.283106   -0.071903    1.747304
      4          6           0        3.104163   -0.252700    0.635912
      5          6           0        2.550193   -0.200567   -0.646158
      6          6           0        1.185592    0.030640   -0.803992
      7          6           0       -1.097044    0.464992    0.123762
      8          6           0       -1.600458    1.765107   -0.009587
      9          6           0       -2.958600    2.014587   -0.178813
     10          6           0       -3.849115    0.952214   -0.217793
     11          6           0       -3.386954   -0.354123   -0.088726
     12          6           0       -2.019449   -0.596953    0.080917
     13          1           0        0.296380    0.297323    2.458339
     14          1           0        2.720261   -0.113472    2.736640
     15          1           0        0.772509    0.067903   -1.803865
     16          1           0       -3.312974    3.031807   -0.278935
     17          1           0       -4.908521    1.129914   -0.349015
     18         17           0       -1.436569   -2.233971    0.242284
     19         17           0       -4.546292   -1.658304   -0.144256
     20         17           0        3.532067   -0.419500   -2.074179
     21         17           0        4.808709   -0.539811    0.884022
     22         17           0       -0.508239    3.137508    0.034713
 ---------------------------------------------------------------------

 The electronic state is 1-A.
 Alpha  occ. eigenvalues -- -101.57540-101.57533-101.57339-101.56823-101.56803
 Alpha  occ. eigenvalues --  -10.27581 -10.27032 -10.26916 -10.26282 -10.26220
 Alpha  occ. eigenvalues --  -10.23651 -10.22057 -10.21994 -10.21702 -10.21032
 Alpha  occ. eigenvalues --  -10.20905 -10.20595  -9.49012  -9.48991  -9.48806
 Alpha  occ. eigenvalues --   -9.48281  -9.48262  -7.25499  -7.25477  -7.25278
 Alpha  occ. eigenvalues --   -7.24762  -7.24744  -7.24499  -7.24470  -7.24418
 Alpha  occ. eigenvalues --   -7.24413  -7.24290  -7.24235  -7.23764  -7.23743
 Alpha  occ. eigenvalues --   -7.23706  -7.23687  -0.94895  -0.93078  -0.90565
 Alpha  occ. eigenvalues --   -0.88349  -0.87208  -0.86059  -0.84341  -0.79825
 Alpha  occ. eigenvalues --   -0.76775  -0.75030  -0.74049  -0.66448  -0.64372
 Alpha  occ. eigenvalues --   -0.62831  -0.60838  -0.55040  -0.53291  -0.52674
 Alpha  occ. eigenvalues --   -0.51483  -0.49381  -0.48007  -0.46469  -0.46044
 Alpha  occ. eigenvalues --   -0.45758  -0.44511  -0.43379  -0.42646  -0.41385
 Alpha  occ. eigenvalues --   -0.39800  -0.39538  -0.39172  -0.36694  -0.35984
 Alpha  occ. eigenvalues --   -0.35460  -0.34867  -0.33991  -0.33505  -0.33421
 Alpha  occ. eigenvalues --   -0.32474  -0.32007  -0.28530  -0.27756  -0.26563
 Alpha  occ. eigenvalues --   -0.26349
 Alpha virt. eigenvalues --   -0.05722  -0.05574  -0.04706  -0.04137  -0.03206
 Alpha virt. eigenvalues --   -0.01786  -0.00559  -0.00014   0.00951   0.01796
 Alpha virt. eigenvalues --    0.02084   0.02455   0.02482   0.03129   0.04172

 Mulliken charges:
               1
     1  C    0.339843
     2  C   -0.827667
     3  C   -1.211695
     4  C    0.415093
     5  C    0.207858
     6  C   -1.465233
     7  C    0.266663
     8  C    0.166169
     9  C   -0.487698
    10  C   -0.568321
    11  C    0.977461
    12  C   -1.053214
    13  H    0.130190
    14  H    0.156436
    15  H    0.144634
    16  H    0.157041
    17  H    0.159107
    18  Cl   0.595275
    19  Cl   0.465007
    20  Cl   0.510389
    21  Cl   0.476340
    22  Cl   0.446322
 Sum of Mulliken charges =  -0.00000

 Dipole moment (field-independent basis, Debye):
    X=             -2.4252    Y=              1.4849    Z=              0.9165  Tot=              2.9877
 Quadrupole moment (field-independent basis, Debye-Ang):
   XX=           -133.5521   YY=           -134.1967   ZZ=           -128.5047
   XY=             -6.4769   XZ=              3.6796   YZ=             -0.4945

 Normal termination of Gaussian 16 at Wed Mar 16 17:44:06 2022.
