 Gaussian 16, Revision B.01,
 Gaussian 16:  EM64L-G16RevB.01 20-Dec-2017

 --------------------------------
 # opt b3lyp/6-311+g(d,p) scf=xqc
 --------------------------------

 -------------------
 Title Card Required
 -------------------
 Symbolic Z-matrix:
 Charge =  0 Multiplicity = 1

 SCF Done:  E(RB3LYP) =  -3221.01796914     A.U. after   16 cycles
 SCF Done:  E(RB3LYP) =  -3221.08992082     A.U. after   16 cycles
 SCF Done:  E(RB3LYP) =  -3221.09509204     A.U. after   14 cycles
 SCF Done:  E(RB3LYP) =  -3221.09564698     A.U. after   12 cycles
 SCF Done:  E(RB3LYP) =  -3221.09571530     A.U. after   12 cycles
 SCF Done:  E(RB3LYP) =  -3221.09614817     A.U. after   13 cycles
 SCF Done:  E(RB3LYP) =  -3221.10533869     A.U. after   17 cycles
 SCF Done:  E(RB3LYP) =  -3221.08118430     A.U. after   17 cycles
 SCF Done:  E(RB3LYP) =  -3221.12685553     A.U. after   17 cycles
 SCF Done:  E(RB3LYP) =  -3221.13070756     A.U. after   16 cycles
 SCF Done:  E(RB3LYP) =  -3221.13325862     A.U. after   16 cycles
 SCF Done:  E(RB3LYP) =  -3221.13379149     A.U. after   13 cycles
 SCF Done:  E(RB3LYP) =  -3221.13419074     A.U. after   15 cycles
 SCF Done:  E(RB3LYP) =  -3221.13434196     A.U. after   14 cycles
 SCF Done:  E(RB3LYP) =  -3221.13441447     A.U. after   14 cycles
 SCF Done:  E(RB3LYP) =  -3221.13442743     A.U. after   13 cycles
 SCF Done:  E(RB3LYP) =  -3221.13442789     A.U. after   12 cycles
 SCF Done:  E(RB3LYP) =  -3221.13442796     A.U. after   11 cycles
 Optimization completed.
    -- Stationary point found.

                         Standard orientation:
 ---------------------------------------------------------------------
 Center     Atomic      Atomic             Coordinates (Angstroms)
 Number     Number       Type             X           Y           Z
 ---------------------------------------------------------------------
      1          6           0       -0.867368   -0.000004   -0.000041
      2          6           0       -1.562473    0.000232   -1.210601
      3          6           0       -2.952579    0.000237   -1.192136
      4          6           0       -3.669055   -0.000005    0.000050
      5          6           0       -2.952503   -0.000225    1.192196
      6          6           0       -1.562401   -0.000219    1.210571
      7          6           0        0.628242   -0.000004   -0.000071
      8          6           0        1.342633   -1.208563   -0.000223
      9          6           0        2.741771   -1.203859   -0.000197
     10          6           0        3.433879    0.000004   -0.000015
     11          6           0        2.741763    1.203867    0.000112
     12          6           0        1.342627    1.208565    0.000081
     13          1           0       -1.030921    0.000392   -2.152974
     14          1           0       -4.750086   -0.000010    0.000085
     15          1           0       -1.030781   -0.000381    2.152905
     16          1           0        4.514979    0.000009    0.000033
     17         17           0        0.472323    2.718811    0.000283
     18         17           0        3.661586    2.684671    0.000338
     19         17           0       -3.830616   -0.000590    2.711242
     20         17           0        3.661593   -2.684664   -0.000277
     21         17           0       -3.830779    0.000579   -2.711133
     22         17           0        0.472340   -2.718817   -0.000358
 ---------------------------------------------------------------------

 The electronic state is 1-A.
 Alpha  occ. eigenvalues -- -101.58191-101.58191-101.58079-101.58079-101.57083
 Alpha  occ. eigenvalues -- -101.57083 -10.28116 -10.28115 -10.27936 -10.27936
 Alpha  occ. eigenvalues --  -10.26504 -10.26504 -10.24588 -10.23032 -10.22944
 Alpha  occ. eigenvalues --  -10.21483 -10.21198 -10.21197  -9.49647  -9.49647
 Alpha  occ. eigenvalues --   -9.49550  -9.49549  -9.48539  -9.48538  -7.26140
 Alpha  occ. eigenvalues --   -7.26140  -7.26041  -7.26041  -7.25124  -7.25124
 Alpha  occ. eigenvalues --   -7.25064  -7.25064  -7.25032  -7.25032  -7.25008
 Alpha  occ. eigenvalues --   -7.25008  -7.24954  -7.24954  -7.24018  -7.24018
 Alpha  occ. eigenvalues --   -7.23981  -7.23981  -0.96294  -0.93000  -0.92379
 Alpha  occ. eigenvalues --   -0.89683  -0.89161  -0.88048  -0.85553  -0.84145
 Alpha  occ. eigenvalues --   -0.79848  -0.76231  -0.75937  -0.74559  -0.68268
 Alpha  occ. eigenvalues --   -0.62815  -0.62706  -0.62044  -0.55222  -0.55195
 Alpha  occ. eigenvalues --   -0.53747  -0.52047  -0.50121  -0.48213  -0.47290
 Alpha  occ. eigenvalues --   -0.46686  -0.46207  -0.45773  -0.43798  -0.43783
 Alpha  occ. eigenvalues --   -0.42485  -0.41160  -0.40279  -0.40271  -0.38047
 Alpha  occ. eigenvalues --   -0.37880  -0.36486  -0.35884  -0.35216  -0.34382
 Alpha  occ. eigenvalues --   -0.33771  -0.33530  -0.33362  -0.33015  -0.32528
 Alpha  occ. eigenvalues --   -0.28629  -0.28061  -0.27036  -0.26801
 Alpha virt. eigenvalues --   -0.06568  -0.06230  -0.05374  -0.04547  -0.04517
 Alpha virt. eigenvalues --   -0.01549  -0.01080  -0.00665   0.00302   0.01308
 Alpha virt. eigenvalues --    0.01498   0.01898   0.02223   0.02426   0.02763

 Mulliken charges:
               1
     1  C    0.238617
     2  C   -1.264361
     3  C    0.662289
     4  C   -1.049152
     5  C    0.662378
     6  C   -1.264659
     7  C   -0.040885
     8  C   -0.707270
     9  C    0.265952
    10  C   -0.744313
    11  C    0.265960
    12  C   -0.707237
    13  H    0.139273
    14  H    0.172037
    15  H    0.139275
    16  H    0.174012
    17  Cl   0.610353
    18  Cl   0.495821
    19  Cl   0.422866
    20  Cl   0.495821
    21  Cl   0.422862
    22  Cl   0.610360
 Sum of Mulliken charges =  -0.00000

 Dipole moment (field-independent basis, Debye):
    X=              1.1134    Y=              0.0000    Z=             -0.0000  Tot=              1.1134
 Quadrupole moment (field-independent basis, Debye-Ang):
   XX=           -141.5806   YY=           -149.6067   ZZ=           -146.3381
   XY=              0.0000   XZ=              0.0001   YZ=             -0.0004

 Normal termination of Gaussian 16 at Thu Mar 24 12:48:33 2022.
