 Gaussian 16, Revision B.01,
 Gaussian 16:  EM64L-G16RevB.01 20-Dec-2017

 --------------------------------
 # opt b3lyp/6-311+g(d,p) scf=xqc
 --------------------------------

 -------------------
 Title Card Required
 -------------------
 Symbolic Z-matrix:
 Charge =  0 Multiplicity = 1

 SCF Done:  E(RB3LYP) =  -4140.24158162     A.U. after   15 cycles
 SCF Done:  E(RB3LYP) =  -4140.31197608     A.U. after   16 cycles
 SCF Done:  E(RB3LYP) =  -4140.31682306     A.U. after   13 cycles
 SCF Done:  E(RB3LYP) =  -4140.31737300     A.U. after   13 cycles
 SCF Done:  E(RB3LYP) =  -4140.31745153     A.U. after   12 cycles
 SCF Done:  E(RB3LYP) =  -4140.32074702     A.U. after   16 cycles
 SCF Done:  E(RB3LYP) =  -4140.33681280     A.U. after   17 cycles
 SCF Done:  E(RB3LYP) =  -4140.34335169     A.U. after   16 cycles
 SCF Done:  E(RB3LYP) =  -4140.35223592     A.U. after   16 cycles
 SCF Done:  E(RB3LYP) =  -4140.35547018     A.U. after   15 cycles
 SCF Done:  E(RB3LYP) =  -4140.35587952     A.U. after   17 cycles
 SCF Done:  E(RB3LYP) =  -4140.35656720     A.U. after   13 cycles
 SCF Done:  E(RB3LYP) =  -4140.35663078     A.U. after   13 cycles
 SCF Done:  E(RB3LYP) =  -4140.35664942     A.U. after   13 cycles
 SCF Done:  E(RB3LYP) =  -4140.35665341     A.U. after   12 cycles
 SCF Done:  E(RB3LYP) =  -4140.35665384     A.U. after   11 cycles
 Optimization completed.
    -- Stationary point found.

                         Standard orientation:
 ---------------------------------------------------------------------
 Center     Atomic      Atomic             Coordinates (Angstroms)
 Number     Number       Type             X           Y           Z
 ---------------------------------------------------------------------
      1          6           0       -0.847879   -0.000050   -0.000058
      2          6           0       -1.548300    0.002086   -1.204026
      3          6           0       -2.938843    0.002059   -1.202976
      4          6           0       -3.658701   -0.000032    0.000028
      5          6           0       -2.938770   -0.002100    1.202987
      6          6           0       -1.548226   -0.002128    1.203952
      7          6           0        0.646633   -0.000033   -0.000108
      8          6           0        1.364926   -1.202706   -0.001275
      9          6           0        2.765532   -1.214575   -0.001213
     10          6           0        3.465370    0.000034   -0.000070
     11          6           0        2.765478    1.214604    0.001052
     12          6           0        1.364866    1.202670    0.001077
     13          1           0       -1.021824    0.003802   -2.149235
     14          1           0       -1.021692   -0.003818    2.149129
     15         17           0        0.486829    2.708402    0.002719
     16         17           0        3.630321    2.718656    0.002490
     17         17           0       -3.764734   -0.004666    2.740426
     18         17           0        5.200189    0.000112    0.000053
     19         17           0       -5.393868    0.000005    0.000081
     20         17           0        3.630384   -2.718623   -0.002431
     21         17           0       -3.764901    0.004686   -2.740364
     22         17           0        0.487013   -2.708510   -0.002745
 ---------------------------------------------------------------------

 The electronic state is 1-A.
 Alpha  occ. eigenvalues -- -101.58852-101.58752-101.58752-101.58642-101.58641
 Alpha  occ. eigenvalues -- -101.57866-101.57744-101.57744 -10.29294 -10.28999
 Alpha  occ. eigenvalues --  -10.28993 -10.28890 -10.28890 -10.27823 -10.27568
 Alpha  occ. eigenvalues --  -10.27562 -10.25027 -10.23491 -10.22002 -10.22001
 Alpha  occ. eigenvalues --   -9.50318  -9.50218  -9.50218  -9.50115  -9.50115
 Alpha  occ. eigenvalues --   -9.49326  -9.49202  -9.49202  -7.26828  -7.26727
 Alpha  occ. eigenvalues --   -7.26727  -7.26611  -7.26611  -7.25827  -7.25799
 Alpha  occ. eigenvalues --   -7.25706  -7.25697  -7.25697  -7.25691  -7.25691
 Alpha  occ. eigenvalues --   -7.25609  -7.25609  -7.25597  -7.25597  -7.25514
 Alpha  occ. eigenvalues --   -7.25514  -7.24809  -7.24725  -7.24681  -7.24681
 Alpha  occ. eigenvalues --   -7.24620  -7.24620  -0.97838  -0.95331  -0.93269
 Alpha  occ. eigenvalues --   -0.92333  -0.90196  -0.88715  -0.88335  -0.87493
 Alpha  occ. eigenvalues --   -0.85930  -0.84511  -0.79327  -0.76669  -0.75319
 Alpha  occ. eigenvalues --   -0.74881  -0.66997  -0.64367  -0.63994  -0.62038
 Alpha  occ. eigenvalues --   -0.56902  -0.55489  -0.53808  -0.53193  -0.50289
 Alpha  occ. eigenvalues --   -0.49020  -0.48039  -0.47663  -0.47491  -0.46734
 Alpha  occ. eigenvalues --   -0.45583  -0.45270  -0.44054  -0.41916  -0.41807
 Alpha  occ. eigenvalues --   -0.41765  -0.40053  -0.38869  -0.37023  -0.36957
 Alpha  occ. eigenvalues --   -0.36604  -0.36570  -0.36215  -0.35391  -0.35344
 Alpha  occ. eigenvalues --   -0.34312  -0.34266  -0.34006  -0.33509  -0.32147
 Alpha  occ. eigenvalues --   -0.31948  -0.28290  -0.27693  -0.27446  -0.27442
 Alpha virt. eigenvalues --   -0.07126  -0.07080  -0.06547  -0.05918  -0.05460
 Alpha virt. eigenvalues --   -0.03925  -0.01453  -0.01095  -0.00261   0.01237
 Alpha virt. eigenvalues --    0.01265   0.01544   0.01832   0.02076   0.02270

 Mulliken charges:
               1
     1  C    0.501160
     2  C   -1.494935
     3  C   -0.097017
     4  C   -0.283152
     5  C   -0.097305
     6  C   -1.494736
     7  C   -0.061829
     8  C   -0.965783
     9  C   -0.171046
    10  C    0.103576
    11  C   -0.171064
    12  C   -0.965918
    13  H    0.144887
    14  H    0.144890
    15  Cl   0.631650
    16  Cl   0.617905
    17  Cl   0.546396
    18  Cl   0.685881
    19  Cl   0.630522
    20  Cl   0.617898
    21  Cl   0.546370
    22  Cl   0.631651
 Sum of Mulliken charges =  -0.00000

 Dipole moment (field-independent basis, Debye):
    X=              1.2091    Y=              0.0000    Z=             -0.0001  Tot=              1.2091
 Quadrupole moment (field-independent basis, Debye-Ang):
   XX=           -176.6814   YY=           -170.5678   ZZ=           -167.6240
   XY=              0.0001   XZ=              0.0002   YZ=             -0.0052

 Normal termination of Gaussian 16 at Mon Mar 28 02:20:51 2022.
