 Gaussian 16, Revision B.01,
 Gaussian 16:  EM64L-G16RevB.01 20-Dec-2017

 --------------------------------
 # opt b3lyp/6-311+g(d,p) scf=xqc
 --------------------------------

 -------------------
 Title Card Required
 -------------------
 Symbolic Z-matrix:
 Charge =  0 Multiplicity = 1

 SCF Done:  E(RB3LYP) =  -2301.83562585     A.U. after   15 cycles
 SCF Done:  E(RB3LYP) =  -2301.87277676     A.U. after   16 cycles
 SCF Done:  E(RB3LYP) =  -2301.87954547     A.U. after   16 cycles
 SCF Done:  E(RB3LYP) =  -2301.88279267     A.U. after   14 cycles
 SCF Done:  E(RB3LYP) =  -2301.88299855     A.U. after   13 cycles
 SCF Done:  E(RB3LYP) =  -2301.88302048     A.U. after   12 cycles
 SCF Done:  E(RB3LYP) =  -2301.88302552     A.U. after   11 cycles
 SCF Done:  E(RB3LYP) =  -2301.88302511     A.U. after   10 cycles
 SCF Done:  E(RB3LYP) =  -2301.88613216     A.U. after   16 cycles
 SCF Done:  E(RB3LYP) =  -2301.89169829     A.U. after   17 cycles
 SCF Done:  E(RB3LYP) =  -2301.89535588     A.U. after   17 cycles
 SCF Done:  E(RB3LYP) =  -2301.89631963     A.U. after   14 cycles
 SCF Done:  E(RB3LYP) =  -2301.89659236     A.U. after   13 cycles
 SCF Done:  E(RB3LYP) =  -2301.89672882     A.U. after   14 cycles
 SCF Done:  E(RB3LYP) =  -2301.89678108     A.U. after   13 cycles
 SCF Done:  E(RB3LYP) =  -2301.89679450     A.U. after   12 cycles
 SCF Done:  E(RB3LYP) =  -2301.89679617     A.U. after   12 cycles
 SCF Done:  E(RB3LYP) =  -2301.89679629     A.U. after   11 cycles
 SCF Done:  E(RB3LYP) =  -2301.89679633     A.U. after   10 cycles
 Optimization completed.
    -- Stationary point found.

                         Standard orientation:
 ---------------------------------------------------------------------
 Center     Atomic      Atomic             Coordinates (Angstroms)
 Number     Number       Type             X           Y           Z
 ---------------------------------------------------------------------
      1          6           0       -1.392796    0.709655   -0.292117
      2          6           0       -1.953517    1.544632   -1.264494
      3          6           0       -3.334732    1.593332   -1.439481
      4          6           0       -4.176994    0.819475   -0.646078
      5          6           0       -3.610743   -0.003484    0.323070
      6          6           0       -2.235532   -0.069579    0.508798
      7          6           0        0.083408    0.700871   -0.079922
      8          6           0        0.714565    1.882160    0.324635
      9          6           0        2.082813    1.939281    0.542417
     10          6           0        2.860546    0.802168    0.355729
     11          6           0        2.269440   -0.398034   -0.057539
     12          6           0        0.881438   -0.437002   -0.275286
     13          1           0       -1.306036    2.144779   -1.892987
     14          1           0       -3.760581    2.236324   -2.201056
     15          1           0       -5.251267    0.851219   -0.773831
     16          1           0       -1.825319   -0.716411    1.273107
     17          1           0        0.110880    2.766914    0.486174
     18          1           0        2.554791    2.858409    0.863586
     19         17           0        0.149290   -1.918879   -0.843085
     20         17           0        3.246054   -1.813650   -0.308437
     21         17           0       -4.659397   -0.980033    1.342790
     22         17           0        4.578767    0.910087    0.646768
 ---------------------------------------------------------------------

 The electronic state is 1-A.
 Alpha  occ. eigenvalues -- -101.57343-101.57301-101.57136-101.56184 -10.27310
 Alpha  occ. eigenvalues --  -10.27157 -10.26882 -10.25252 -10.22610 -10.21630
 Alpha  occ. eigenvalues --  -10.21264 -10.21123 -10.20284 -10.20189 -10.20128
 Alpha  occ. eigenvalues --  -10.19894  -9.48810  -9.48759  -9.48617  -9.47641
 Alpha  occ. eigenvalues --   -7.25309  -7.25245  -7.25102  -7.24293  -7.24241
 Alpha  occ. eigenvalues --   -7.24208  -7.24179  -7.24104  -7.24101  -7.24023
 Alpha  occ. eigenvalues --   -7.23125  -7.23090  -0.94815  -0.91070  -0.89689
 Alpha  occ. eigenvalues --   -0.87702  -0.85740  -0.84631  -0.79573  -0.75999
 Alpha  occ. eigenvalues --   -0.75818  -0.74081  -0.65480  -0.64027  -0.62687
 Alpha  occ. eigenvalues --   -0.60421  -0.54963  -0.52938  -0.52426  -0.49393
 Alpha  occ. eigenvalues --   -0.49163  -0.47472  -0.46296  -0.45590  -0.44981
 Alpha  occ. eigenvalues --   -0.44501  -0.42096  -0.41615  -0.40455  -0.38530
 Alpha  occ. eigenvalues --   -0.38329  -0.38045  -0.36135  -0.34923  -0.34838
 Alpha  occ. eigenvalues --   -0.34076  -0.33756  -0.32531  -0.31617  -0.28679
 Alpha  occ. eigenvalues --   -0.27126  -0.26697  -0.26013
 Alpha virt. eigenvalues --   -0.06082  -0.05279  -0.03774  -0.03392  -0.02971
 Alpha virt. eigenvalues --   -0.00894   0.00248   0.01000   0.01419   0.01891
 Alpha virt. eigenvalues --    0.02270   0.02608   0.02975   0.04212   0.04308

 Mulliken charges:
               1
     1  C    0.568489
     2  C   -0.403680
     3  C   -0.309742
     4  C   -0.610276
     5  C    0.646559
     6  C   -1.285317
     7  C    0.650318
     8  C   -0.555576
     9  C   -0.750901
    10  C    0.157569
    11  C   -0.126923
    12  C   -0.909166
    13  H    0.127386
    14  H    0.136606
    15  H    0.151193
    16  H    0.150778
    17  H    0.139639
    18  H    0.156667
    19  Cl   0.600888
    20  Cl   0.562217
    21  Cl   0.406699
    22  Cl   0.496573
 Sum of Mulliken charges =  -0.00000

 Dipole moment (field-independent basis, Debye):
    X=             -0.8256    Y=              2.9631    Z=             -0.6900  Tot=              3.1524
 Quadrupole moment (field-independent basis, Debye-Ang):
   XX=           -124.7554   YY=           -114.6284   ZZ=           -119.9352
   XY=             -2.3174   XZ=              5.7296   YZ=             -2.2154

 1\1\GINC-DAMODAR\FOpt\RB3LYP\6-311+G(d,p)\C12H6Cl4\PKC\15-Mar-2022\0\\
 # opt b3lyp/6-311+g(d,p) scf=xqc\\Title Card Required\\0,1\C,-0.468028
 5728,0.0253998855,-0.0295550363\C,0.4964437205,0.2277220317,-1.0225154
 352\C,1.2322570637,1.4100851964,-1.0591763662\C,1.025175068,2.40313437
 39,-0.1059096509\C,0.0681124061,2.1905569292,0.8820137561\C,-0.6791984
 985,1.0204634603,0.9317624783\C,-1.2162001461,-1.2633918854,0.02992902
 5\C,-0.5035185903,-2.4489256463,0.2398438721\C,-1.1399568644,-3.678953
 5496,0.3089171284\C,-2.5208393628,-3.7517882605,0.1653714494\C,-3.2704

 Normal termination of Gaussian 16 at Tue Mar 15 22:44:32 2022.
