 Gaussian 16, Revision B.01,
 Gaussian 16:  EM64L-G16RevB.01 20-Dec-2017

 --------------------------------
 # opt b3lyp/6-311+g(d,p) scf=xqc
 --------------------------------

 -------------------
 Title Card Required
 -------------------
 Symbolic Z-matrix:
 Charge =  0 Multiplicity = 1

 SCF Done:  E(RB3LYP) =  -1842.21974659     A.U. after   15 cycles
 SCF Done:  E(RB3LYP) =  -1842.25744683     A.U. after   16 cycles
 SCF Done:  E(RB3LYP) =  -1842.26409610     A.U. after   16 cycles
 SCF Done:  E(RB3LYP) =  -1842.26724792     A.U. after   13 cycles
 SCF Done:  E(RB3LYP) =  -1842.26744888     A.U. after   12 cycles
 SCF Done:  E(RB3LYP) =  -1842.26746523     A.U. after   11 cycles
 SCF Done:  E(RB3LYP) =  -1842.26746729     A.U. after   11 cycles
 SCF Done:  E(RB3LYP) =  -1842.26746676     A.U. after   10 cycles
 SCF Done:  E(RB3LYP) =  -1842.27011830     A.U. after   17 cycles
 SCF Done:  E(RB3LYP) =  -1842.23518505     A.U. after   17 cycles
 SCF Done:  E(RB3LYP) =  -1842.27614863     A.U. after   16 cycles
 SCF Done:  E(RB3LYP) =  -1842.27930977     A.U. after   17 cycles
 SCF Done:  E(RB3LYP) =  -1842.28034749     A.U. after   14 cycles
 SCF Done:  E(RB3LYP) =  -1842.28065345     A.U. after   15 cycles
 SCF Done:  E(RB3LYP) =  -1842.28088122     A.U. after   14 cycles
 SCF Done:  E(RB3LYP) =  -1842.28094141     A.U. after   14 cycles
 SCF Done:  E(RB3LYP) =  -1842.28094985     A.U. after   13 cycles
 SCF Done:  E(RB3LYP) =  -1842.28095090     A.U. after   12 cycles
 SCF Done:  E(RB3LYP) =  -1842.28095107     A.U. after   11 cycles
 SCF Done:  E(RB3LYP) =  -1842.28095117     A.U. after   11 cycles
 Optimization completed.
    -- Stationary point found.

                         Standard orientation:
 ---------------------------------------------------------------------
 Center     Atomic      Atomic             Coordinates (Angstroms)
 Number     Number       Type             X           Y           Z
 ---------------------------------------------------------------------
      1          6           0        0.772919    0.442413   -0.054351
      2          6           0        1.585525    1.019597    0.927675
      3          6           0        2.957739    0.781990    0.957852
      4          6           0        3.523101   -0.037467   -0.012131
      5          6           0        2.740031   -0.619841   -1.004394
      6          6           0        1.369998   -0.379442   -1.017510
      7          6           0       -0.683941    0.756121   -0.093685
      8          6           0       -1.082005    2.089370   -0.253469
      9          6           0       -2.425028    2.444342   -0.302995
     10          6           0       -3.406427    1.467298   -0.192836
     11          6           0       -3.036095    0.135881   -0.025124
     12          6           0       -1.683873   -0.225714    0.028352
     13          1           0        1.140993    1.652198    1.687571
     14          1           0        3.578108    1.225081    1.726315
     15          1           0        3.196115   -1.250456   -1.756750
     16          1           0        0.762443   -0.830595   -1.792660
     17          1           0       -0.315777    2.848221   -0.357506
     18          1           0       -2.710275    3.481269   -0.434573
     19          1           0       -4.457458    1.722106   -0.233089
     20         17           0       -1.244732   -1.897920    0.296593
     21         17           0       -4.303203   -1.060548    0.127031
     22         17           0        5.254651   -0.341244    0.012634
 ---------------------------------------------------------------------

 The electronic state is 1-A.
 Alpha  occ. eigenvalues -- -101.56645-101.56577-101.56038 -10.26256 -10.26086
 Alpha  occ. eigenvalues --  -10.24970 -10.22065 -10.20895 -10.20607 -10.20275
 Alpha  occ. eigenvalues --  -10.20186 -10.19991 -10.19934 -10.19926 -10.19867
 Alpha  occ. eigenvalues --   -9.48108  -9.48057  -9.47495  -7.24587  -7.24536
 Alpha  occ. eigenvalues --   -7.23953  -7.23592  -7.23546  -7.23532  -7.23470
 Alpha  occ. eigenvalues --   -7.22980  -7.22945  -0.93151  -0.90584  -0.87400
 Alpha  occ. eigenvalues --   -0.86103  -0.84728  -0.78848  -0.77508  -0.74872
 Alpha  occ. eigenvalues --   -0.73640  -0.64889  -0.64084  -0.61958  -0.60306
 Alpha  occ. eigenvalues --   -0.54812  -0.52026  -0.51076  -0.48912  -0.48656
 Alpha  occ. eigenvalues --   -0.47045  -0.45350  -0.44928  -0.44879  -0.42930
 Alpha  occ. eigenvalues --   -0.41197  -0.40684  -0.39359  -0.37959  -0.37679
 Alpha  occ. eigenvalues --   -0.35791  -0.35233  -0.34458  -0.33804  -0.32364
 Alpha  occ. eigenvalues --   -0.31652  -0.28194  -0.27935  -0.26367  -0.25291
 Alpha virt. eigenvalues --   -0.05546  -0.04475  -0.03403  -0.02365  -0.01837
 Alpha virt. eigenvalues --   -0.00748   0.00614   0.01037   0.01616   0.02357
 Alpha virt. eigenvalues --    0.02826   0.02905   0.04049   0.04473   0.04979

 Mulliken charges:
               1
     1  C    1.299364
     2  C   -0.667494
     3  C   -0.704959
     4  C    0.895554
     5  C   -0.787744
     6  C   -0.981195
     7  C    0.777215
     8  C   -0.603166
     9  C   -0.264132
    10  C   -0.633496
    11  C    0.290035
    12  C   -1.028087
    13  H    0.131065
    14  H    0.150319
    15  H    0.150994
    16  H    0.137257
    17  H    0.135340
    18  H    0.137802
    19  H    0.154261
    20  Cl   0.614123
    21  Cl   0.418640
    22  Cl   0.378307
 Sum of Mulliken charges =  -0.00000

 Dipole moment (field-independent basis, Debye):
    X=             -0.7638    Y=              2.5961    Z=             -0.3848  Tot=              2.7333
 Quadrupole moment (field-independent basis, Debye-Ang):
   XX=           -115.0991   YY=           -102.0750   ZZ=           -106.4144
   XY=             -5.4610   XZ=              1.3845   YZ=              3.2352

 1\1\GINC-DAMODAR\FOpt\RB3LYP\6-311+G(d,p)\C12H7Cl3\PKC\15-Mar-2022\0\\
 # opt b3lyp/6-311+g(d,p) scf=xqc\\Title Card Required\\0,1\C,-0.377785
 3263,-0.1904776444,-0.0126030011\C,0.5876903862,0.0169623479,-1.003899
 4445\C,1.3351440879,1.1916262029,-1.0465101273\C,1.1176951733,2.166342
 0723,-0.0797334472\C,0.168342741,1.9842928839,0.9215325487\C,-0.575721
 0759,0.8092737252,0.9470542192\C,-1.1258387333,-1.4789164915,0.0397632
 14\C,-0.4062650487,-2.6697863986,0.1997038685\C,-1.047103806,-3.901748
 1632,0.2610649577\C,-2.431127334,-3.9706208914,0.162928287\C,-3.168075

 Normal termination of Gaussian 16 at Tue Mar 15 03:08:49 2022.
