 Gaussian 16, Revision B.01,
 Gaussian 16:  EM64L-G16RevB.01 20-Dec-2017

 --------------------------------
 # opt b3lyp/6-311+g(d,p) scf=xqc
 --------------------------------

 -------------------
 Title Card Required
 -------------------
 Symbolic Z-matrix:
 Charge =  0 Multiplicity = 1

 SCF Done:  E(RB3LYP) =  -1842.15706384     A.U. after   16 cycles
 SCF Done:  E(RB3LYP) =  -1842.23467475     A.U. after   14 cycles
 SCF Done:  E(RB3LYP) =  -1842.24001087     A.U. after   13 cycles
 SCF Done:  E(RB3LYP) =  -1842.22941418     A.U. after   16 cycles
 SCF Done:  E(RB3LYP) =  -1842.24122274     A.U. after   12 cycles
 SCF Done:  E(RB3LYP) =  -1842.24142649     A.U. after   12 cycles
 SCF Done:  E(RB3LYP) =  -1842.24164129     A.U. after   13 cycles
 SCF Done:  E(RB3LYP) =  -1842.21945685     A.U. after   17 cycles
 SCF Done:  E(RB3LYP) =  -1842.16937122     A.U. after   16 cycles
 SCF Done:  E(RB3LYP) =  -1842.14054112     A.U. after   16 cycles
 SCF Done:  E(RB3LYP) =  -1842.27564971     A.U. after   16 cycles
 SCF Done:  E(RB3LYP) =  -1842.27584166     A.U. after   14 cycles
 SCF Done:  E(RB3LYP) =  -1842.27593720     A.U. after   12 cycles
 SCF Done:  E(RB3LYP) =  -1842.27597706     A.U. after   12 cycles
 SCF Done:  E(RB3LYP) =  -1842.27599849     A.U. after   12 cycles
 SCF Done:  E(RB3LYP) =  -1842.27601397     A.U. after   12 cycles
 SCF Done:  E(RB3LYP) =  -1842.27603027     A.U. after   13 cycles
 SCF Done:  E(RB3LYP) =  -1842.27603959     A.U. after   12 cycles
 SCF Done:  E(RB3LYP) =  -1842.27603975     A.U. after   11 cycles
 SCF Done:  E(RB3LYP) =  -1842.27603976     A.U. after    9 cycles
 Optimization completed.
    -- Stationary point found.

                         Standard orientation:
 ---------------------------------------------------------------------
 Center     Atomic      Atomic             Coordinates (Angstroms)
 Number     Number       Type             X           Y           Z
 ---------------------------------------------------------------------
      1          6           0        1.398207   -0.200766    0.000014
      2          6           0        2.054911   -0.458627    1.206344
      3          6           0        3.351135   -0.968503    1.205579
      4          6           0        4.001717   -1.224660   -0.000019
      5          6           0        3.351043   -0.968657   -1.205603
      6          6           0        2.054827   -0.458772   -1.206337
      7          6           0        0.009737    0.351415    0.000016
      8          6           0       -0.229446    1.731701   -0.000008
      9          6           0       -1.516951    2.258793   -0.000006
     10          6           0       -2.606833    1.401207   -0.000011
     11          6           0       -2.411217    0.023683   -0.000002
     12          6           0       -1.112742   -0.497897    0.000025
     13          1           0        1.550215   -0.260144    2.145139
     14          1           0        3.851734   -1.165148    2.146900
     15          1           0        5.010570   -1.621554   -0.000033
     16          1           0        3.851573   -1.165429   -2.146935
     17          1           0        1.550065   -0.260393   -2.145119
     18          1           0       -1.662393    3.330830   -0.000017
     19          1           0       -3.614786    1.795072   -0.000021
     20         17           0       -0.868675   -2.226581    0.000043
     21         17           0       -3.815150   -1.016654   -0.000002
     22         17           0        1.118925    2.855780   -0.000033
 ---------------------------------------------------------------------

 The electronic state is 1-A.
 Alpha  occ. eigenvalues -- -101.56884-101.56698-101.56502 -10.26712 -10.26269
 Alpha  occ. eigenvalues --  -10.26038 -10.22638 -10.21219 -10.20930 -10.20204
 Alpha  occ. eigenvalues --  -10.18738 -10.18737 -10.18588 -10.18558 -10.18509
 Alpha  occ. eigenvalues --   -9.48343  -9.48171  -9.47969  -7.24826  -7.24656
 Alpha  occ. eigenvalues --   -7.24440  -7.23823  -7.23767  -7.23660  -7.23576
 Alpha  occ. eigenvalues --   -7.23455  -7.23398  -0.93964  -0.89796  -0.87845
 Alpha  occ. eigenvalues --   -0.86584  -0.83567  -0.79586  -0.76023  -0.74751
 Alpha  occ. eigenvalues --   -0.73531  -0.65601  -0.62040  -0.61999  -0.59976
 Alpha  occ. eigenvalues --   -0.54331  -0.52425  -0.52066  -0.48423  -0.47359
 Alpha  occ. eigenvalues --   -0.46853  -0.45656  -0.44407  -0.43746  -0.43226
 Alpha  occ. eigenvalues --   -0.41117  -0.40876  -0.38587  -0.37810  -0.36404
 Alpha  occ. eigenvalues --   -0.36286  -0.35703  -0.34052  -0.32756  -0.32756
 Alpha  occ. eigenvalues --   -0.31925  -0.27621  -0.26723  -0.26413  -0.25786
 Alpha virt. eigenvalues --   -0.04807  -0.04649  -0.02895  -0.02389  -0.02246
 Alpha virt. eigenvalues --   -0.00306   0.00474   0.01145   0.02066   0.02528
 Alpha virt. eigenvalues --    0.02876   0.03097   0.04218   0.04508   0.04860

 Mulliken charges:
               1
     1  C    0.735827
     2  C   -0.737987
     3  C   -0.361651
     4  C   -0.086434
     5  C   -0.361645
     6  C   -0.738057
     7  C    0.320719
     8  C   -0.026812
     9  C   -0.371265
    10  C   -0.605885
    11  C    0.970134
    12  C   -1.110460
    13  H    0.118484
    14  H    0.129045
    15  H    0.128707
    16  H    0.129045
    17  H    0.118484
    18  H    0.155624
    19  H    0.156776
    20  Cl   0.556602
    21  Cl   0.463538
    22  Cl   0.417214
 Sum of Mulliken charges =  -0.00000

 Dipole moment (field-independent basis, Debye):
    X=              0.4832    Y=              0.9423    Z=             -0.0000  Tot=              1.0590
 Quadrupole moment (field-independent basis, Debye-Ang):
   XX=           -101.0842   YY=           -108.4250   ZZ=           -104.2631
   XY=             -9.6186   XZ=              0.0003   YZ=              0.0005

 1\1\GINC-DAMODAR\FOpt\RB3LYP\6-311+G(d,p)\C12H7Cl3\PKC\15-Mar-2022\0\\
 # opt b3lyp/6-311+g(d,p) scf=xqc\\Title Card Required\\0,1\C,-0.410538
 9908,1.8539643662,0.2757835591\C,0.2460862593,2.2690528028,-0.88590870
 79\C,0.954347127,3.4683318,-0.9021973386\C,1.0125192432,4.2623594241,0
 .2416891217\C,0.3596722079,3.8523394791,1.402732364\C,-0.3489470599,2.
 6532962114,1.4204563761\C,-1.1659043619,0.564864438,0.2956830823\C,-0.
 5487112421,-0.6400926196,0.6556103672\C,-1.2403888442,-1.8469750016,0.
 678240796\C,-2.5840429905,-1.8714802841,0.3357651825\C,-3.2334110887,-

 Normal termination of Gaussian 16 at Tue Mar 15 05:22:06 2022.
