 Gaussian 16, Revision B.01,
 Gaussian 16:  EM64L-G16RevB.01 20-Dec-2017

 --------------------------------
 # opt b3lyp/6-311+g(d,p) scf=xqc
 --------------------------------

 -------------------
 Title Card Required
 -------------------
 Symbolic Z-matrix:
 Charge =  0 Multiplicity = 1

 SCF Done:  E(RB3LYP) =  -2761.39675949     A.U. after   15 cycles
 SCF Done:  E(RB3LYP) =  -2761.47033655     A.U. after   15 cycles
 SCF Done:  E(RB3LYP) =  -2761.47546090     A.U. after   14 cycles
 SCF Done:  E(RB3LYP) =  -2761.47603932     A.U. after   12 cycles
 SCF Done:  E(RB3LYP) =  -2761.47610834     A.U. after   12 cycles
 SCF Done:  E(RB3LYP) =  -2761.47666171     A.U. after   14 cycles
 SCF Done:  E(RB3LYP) =  -2761.48620848     A.U. after   16 cycles
 SCF Done:  E(RB3LYP) =  -2761.43035233     A.U. after   17 cycles
 SCF Done:  E(RB3LYP) =  -2761.50697970     A.U. after   16 cycles
 SCF Done:  E(RB3LYP) =  -2761.50741336     A.U. after   17 cycles
 SCF Done:  E(RB3LYP) =  -2761.51304868     A.U. after   16 cycles
 SCF Done:  E(RB3LYP) =  -2761.51353493     A.U. after   15 cycles
 SCF Done:  E(RB3LYP) =  -2761.51362389     A.U. after   13 cycles
 SCF Done:  E(RB3LYP) =  -2761.51378442     A.U. after   16 cycles
 SCF Done:  E(RB3LYP) =  -2761.51384096     A.U. after   14 cycles
 SCF Done:  E(RB3LYP) =  -2761.51390664     A.U. after   14 cycles
 SCF Done:  E(RB3LYP) =  -2761.51394092     A.U. after   13 cycles
 SCF Done:  E(RB3LYP) =  -2761.51394187     A.U. after   11 cycles
 SCF Done:  E(RB3LYP) =  -2761.51394202     A.U. after   11 cycles
 SCF Done:  E(RB3LYP) =  -2761.51394203     A.U. after   10 cycles
 Optimization completed.
    -- Stationary point found.

                         Standard orientation:
 ---------------------------------------------------------------------
 Center     Atomic      Atomic             Coordinates (Angstroms)
 Number     Number       Type             X           Y           Z
 ---------------------------------------------------------------------
      1          6           0        1.090317   -0.000011   -0.000009
      2          6           0        1.797577   -0.000057   -1.204405
      3          6           0        3.189526   -0.000063   -1.211511
      4          6           0        3.872976   -0.000012    0.000002
      5          6           0        3.189517    0.000046    1.211509
      6          6           0        1.797567    0.000045    1.204392
      7          6           0       -0.404328   -0.000006   -0.000020
      8          6           0       -1.121674    1.207517   -0.000016
      9          6           0       -2.520754    1.203211   -0.000014
     10          6           0       -3.213759    0.000014   -0.000010
     11          6           0       -2.520772   -1.203191   -0.000012
     12          6           0       -1.121691   -1.207516   -0.000018
     13          1           0        1.260753   -0.000091   -2.146016
     14          1           0        3.736589   -0.000110   -2.145442
     15          1           0        3.736572    0.000094    2.145443
     16          1           0        1.260738    0.000081    2.146000
     17          1           0       -4.294818    0.000022    0.000002
     18         17           0       -0.253254   -2.719649    0.000009
     19         17           0       -3.441633   -2.684559    0.000033
     20         17           0       -3.441599    2.684589   -0.000013
     21         17           0       -0.253210    2.719633    0.000003
     22         17           0        5.630470   -0.000006    0.000009
 ---------------------------------------------------------------------

 The electronic state is 1-A.
 Alpha  occ. eigenvalues -- -101.57886-101.57886-101.57667-101.57667-101.56289
 Alpha  occ. eigenvalues --  -10.27670 -10.27668 -10.27561 -10.27561 -10.25341
 Alpha  occ. eigenvalues --  -10.24034 -10.22569 -10.21531 -10.20405 -10.20403
 Alpha  occ. eigenvalues --  -10.20293 -10.20293  -9.49343  -9.49343  -9.49138
 Alpha  occ. eigenvalues --   -9.49137  -9.47746  -7.25834  -7.25834  -7.25628
 Alpha  occ. eigenvalues --   -7.25628  -7.24820  -7.24820  -7.24761  -7.24761
 Alpha  occ. eigenvalues --   -7.24623  -7.24623  -7.24542  -7.24542  -7.24206
 Alpha  occ. eigenvalues --   -7.23231  -7.23195  -0.95831  -0.91987  -0.91094
 Alpha  occ. eigenvalues --   -0.89216  -0.87666  -0.85777  -0.83952  -0.79170
 Alpha  occ. eigenvalues --   -0.77931  -0.74459  -0.74161  -0.66473  -0.64306
 Alpha  occ. eigenvalues --   -0.62272  -0.60970  -0.54965  -0.54770  -0.52747
 Alpha  occ. eigenvalues --   -0.50005  -0.49200  -0.48025  -0.46900  -0.45874
 Alpha  occ. eigenvalues --   -0.45705  -0.45110  -0.43092  -0.42879  -0.41068
 Alpha  occ. eigenvalues --   -0.40786  -0.38853  -0.38649  -0.37325  -0.36161
 Alpha  occ. eigenvalues --   -0.35442  -0.35321  -0.34431  -0.33162  -0.32913
 Alpha  occ. eigenvalues --   -0.32613  -0.32404  -0.28378  -0.28199  -0.26478
 Alpha  occ. eigenvalues --   -0.26335
 Alpha virt. eigenvalues --   -0.06100  -0.05807  -0.04248  -0.04116  -0.03808
 Alpha virt. eigenvalues --   -0.00961  -0.00829   0.00398   0.00723   0.01540
 Alpha virt. eigenvalues --    0.01549   0.02737   0.02885   0.02996   0.04191

 Mulliken charges:
               1
     1  C    0.769871
     2  C   -0.831148
     3  C   -0.860222
     4  C    1.020906
     5  C   -0.860214
     6  C   -0.831154
     7  C   -0.047716
     8  C   -1.081720
     9  C    0.526929
    10  C   -0.501018
    11  C    0.526887
    12  C   -1.081687
    13  H    0.126280
    14  H    0.152411
    15  H    0.152411
    16  H    0.126281
    17  H    0.171962
    18  Cl   0.585117
    19  Cl   0.479541
    20  Cl   0.479540
    21  Cl   0.585117
    22  Cl   0.391627
 Sum of Mulliken charges =  -0.00000

 Dipole moment (field-independent basis, Debye):
    X=             -0.9289    Y=              0.0000    Z=             -0.0000  Tot=              0.9289
 Quadrupole moment (field-independent basis, Debye-Ang):
   XX=           -136.1038   YY=           -138.8048   ZZ=           -126.2809
   XY=             -0.0000   XZ=             -0.0001   YZ=              0.0004

 1\1\GINC-DAMODAR\FOpt\RB3LYP\6-311+G(d,p)\C12H5Cl5\PKC\16-Mar-2022\0\\
 # opt b3lyp/6-311+g(d,p) scf=xqc\\Title Card Required\\0,1\C,0.0616856
 777,-0.1553648111,-0.0028837048\C,1.2918744737,-0.0524818296,0.6504435
 991\C,2.0001107862,1.1458373214,0.6481133609\C,1.4672273246,2.24619437
 74,-0.0152997162\C,0.243912078,2.1668454355,-0.6726192018\C,-0.4540183
 552,0.9625337986,-0.6625306221\C,-0.6932649449,-1.445314551,0.00378516
 48\C,-0.4898670981,-2.4007544055,-1.0054026681\C,-1.1985757885,-3.6070
 207092,-0.9955533228\C,-2.1123361468,-3.8699763047,0.0162940022\C,-2.3

 Normal termination of Gaussian 16 at Wed Mar 16 20:25:41 2022.
