 Gaussian 16, Revision B.01,
 Gaussian 16:  EM64L-G16RevB.01 20-Dec-2017

 --------------------------------
 # opt b3lyp/6-311+g(d,p) scf=xqc
 --------------------------------

 -------------------
 Title Card Required
 -------------------
 Symbolic Z-matrix:
 Charge =  0 Multiplicity = 1

 SCF Done:  E(RB3LYP) =  -3680.62737823     A.U. after   16 cycles
 SCF Done:  E(RB3LYP) =  -3680.69895732     A.U. after   16 cycles
 SCF Done:  E(RB3LYP) =  -3680.70343961     A.U. after   13 cycles
 SCF Done:  E(RB3LYP) =  -3680.70391504     A.U. after   13 cycles
 SCF Done:  E(RB3LYP) =  -3680.70405803     A.U. after   12 cycles
 SCF Done:  E(RB3LYP) =  -3680.70471731     A.U. after   14 cycles
 SCF Done:  E(RB3LYP) =  -3680.71298825     A.U. after   16 cycles
 SCF Done:  E(RB3LYP) =  -3680.66259829     A.U. after   16 cycles
 SCF Done:  E(RB3LYP) =  -3680.73380218     A.U. after   16 cycles
 SCF Done:  E(RB3LYP) =  -3680.73904874     A.U. after   16 cycles
 SCF Done:  E(RB3LYP) =  -3680.71549971     A.U. after   14 cycles
 SCF Done:  E(RB3LYP) =  -3680.74340409     A.U. after   15 cycles
 SCF Done:  E(RB3LYP) =  -3680.74343495     A.U. after   14 cycles
 SCF Done:  E(RB3LYP) =  -3680.74352444     A.U. after   16 cycles
 SCF Done:  E(RB3LYP) =  -3680.74426769     A.U. after   15 cycles
 SCF Done:  E(RB3LYP) =  -3680.74439141     A.U. after   15 cycles
 SCF Done:  E(RB3LYP) =  -3680.74441831     A.U. after   14 cycles
 SCF Done:  E(RB3LYP) =  -3680.74441994     A.U. after   13 cycles
 SCF Done:  E(RB3LYP) =  -3680.74442014     A.U. after   12 cycles
 Optimization completed.
    -- Stationary point found.

                         Standard orientation:
 ---------------------------------------------------------------------
 Center     Atomic      Atomic             Coordinates (Angstroms)
 Number     Number       Type             X           Y           Z
 ---------------------------------------------------------------------
      1          6           0        1.289935   -0.000020   -0.000095
      2          6           0        1.984945   -0.001080   -1.210709
      3          6           0        3.375091   -0.001093   -1.192271
      4          6           0        4.091423   -0.000041    0.000047
      5          6           0        3.374977    0.001127    1.192297
      6          6           0        1.984829    0.001160    1.210593
      7          6           0       -0.205451   -0.000002   -0.000121
      8          6           0       -0.923801    1.202563   -0.000718
      9          6           0       -2.324445    1.214419   -0.000648
     10          6           0       -3.024454    0.000013   -0.000076
     11          6           0       -2.324467   -1.214397    0.000525
     12          6           0       -0.923824   -1.202561    0.000572
     13          1           0        1.453639   -0.002038   -2.153228
     14          1           0        5.172467   -0.000071    0.000100
     15          1           0        1.453419    0.002156    2.153055
     16         17           0       -0.046369   -2.708664    0.001572
     17         17           0       -3.189458   -2.718659    0.001241
     18         17           0        4.252801    0.002477    2.711202
     19         17           0       -4.759497    0.000028   -0.000037
     20         17           0       -3.189449    2.718677   -0.001227
     21         17           0        4.253058   -0.002504   -2.711092
     22         17           0       -0.046268    2.708611   -0.001442
 ---------------------------------------------------------------------

 The electronic state is 1-A.
 Alpha  occ. eigenvalues -- -101.58682-101.58580-101.58580-101.58423-101.58423
 Alpha  occ. eigenvalues -- -101.57228-101.57228 -10.29093 -10.28802 -10.28796
 Alpha  occ. eigenvalues --  -10.28672 -10.28672 -10.26670 -10.26670 -10.24776
 Alpha  occ. eigenvalues --  -10.23247 -10.21649 -10.21379 -10.21378  -9.50148
 Alpha  occ. eigenvalues --   -9.50046  -9.50046  -9.49897  -9.49897  -9.48683
 Alpha  occ. eigenvalues --   -9.48683  -7.26658  -7.26554  -7.26554  -7.26393
 Alpha  occ. eigenvalues --   -7.26393  -7.25629  -7.25537  -7.25525  -7.25525
 Alpha  occ. eigenvalues --   -7.25437  -7.25437  -7.25379  -7.25379  -7.25296
 Alpha  occ. eigenvalues --   -7.25296  -7.25153  -7.25153  -7.24162  -7.24162
 Alpha  occ. eigenvalues --   -7.24125  -7.24125  -0.97622  -0.93409  -0.93068
 Alpha  occ. eigenvalues --   -0.91815  -0.89318  -0.88513  -0.87634  -0.85610
 Alpha  occ. eigenvalues --   -0.84226  -0.79725  -0.76110  -0.75617  -0.75116
 Alpha  occ. eigenvalues --   -0.67388  -0.63787  -0.62988  -0.61990  -0.56682
 Alpha  occ. eigenvalues --   -0.55431  -0.53498  -0.52252  -0.50180  -0.48648
 Alpha  occ. eigenvalues --   -0.47843  -0.47367  -0.47010  -0.46120  -0.44794
 Alpha  occ. eigenvalues --   -0.44528  -0.42986  -0.41715  -0.40785  -0.40594
 Alpha  occ. eigenvalues --   -0.39659  -0.38204  -0.36824  -0.36439  -0.36347
 Alpha  occ. eigenvalues --   -0.36037  -0.35497  -0.33937  -0.33930  -0.33804
 Alpha  occ. eigenvalues --   -0.33448  -0.33090  -0.31797  -0.28203  -0.28077
 Alpha  occ. eigenvalues --   -0.27340  -0.27107
 Alpha virt. eigenvalues --   -0.06894  -0.06827  -0.06354  -0.05563  -0.04782
 Alpha virt. eigenvalues --   -0.01830  -0.01280  -0.00792  -0.00077   0.01001
 Alpha virt. eigenvalues --    0.01393   0.01743   0.01969   0.02085   0.02561

 Mulliken charges:
               1
     1  C    0.523132
     2  C   -1.410136
     3  C    0.725179
     4  C   -1.093547
     5  C    0.725338
     6  C   -1.411017
     7  C   -0.177186
     8  C   -1.092931
     9  C   -0.113274
    10  C    0.061038
    11  C   -0.113280
    12  C   -1.092977
    13  H    0.140581
    14  H    0.172118
    15  H    0.140588
    16  Cl   0.623693
    17  Cl   0.621240
    18  Cl   0.424453
    19  Cl   0.677640
    20  Cl   0.621244
    21  Cl   0.424426
    22  Cl   0.623676
 Sum of Mulliken charges =  -0.00000

 Dipole moment (field-independent basis, Debye):
    X=             -0.2119    Y=              0.0000    Z=             -0.0001  Tot=              0.2119
 Quadrupole moment (field-independent basis, Debye-Ang):
   XX=           -158.8638   YY=           -159.1583   ZZ=           -157.8236
   XY=             -0.0001   XZ=              0.0001   YZ=              0.0015

 Normal termination of Gaussian 16 at Mon Mar 28 01:56:30 2022.
