 Gaussian 16, Revision B.01,
 Gaussian 16:  EM64L-G16RevB.01 20-Dec-2017

 --------------------------------
 # opt b3lyp/6-311+g(d,p) scf=xqc
 --------------------------------

 -------------------
 Title Card Required
 -------------------
 Symbolic Z-matrix:
 Charge =  0 Multiplicity = 1

 SCF Done:  E(RB3LYP) =  -3680.63227415     A.U. after   15 cycles
 SCF Done:  E(RB3LYP) =  -3680.70300727     A.U. after   16 cycles
 SCF Done:  E(RB3LYP) =  -3680.70849533     A.U. after   14 cycles
 SCF Done:  E(RB3LYP) =  -3680.70911148     A.U. after   12 cycles
 SCF Done:  E(RB3LYP) =  -3680.70918524     A.U. after   12 cycles
 SCF Done:  E(RB3LYP) =  -3680.70948782     A.U. after   14 cycles
 SCF Done:  E(RB3LYP) =  -3680.71510184     A.U. after   16 cycles
 SCF Done:  E(RB3LYP) =  -3680.64971599     A.U. after   15 cycles
 SCF Done:  E(RB3LYP) =  -3680.73431218     A.U. after   16 cycles
 SCF Done:  E(RB3LYP) =  -3680.73910517     A.U. after   16 cycles
 SCF Done:  E(RB3LYP) =  -3680.74564016     A.U. after   14 cycles
 SCF Done:  E(RB3LYP) =  -3680.74607613     A.U. after   15 cycles
 SCF Done:  E(RB3LYP) =  -3680.74637110     A.U. after   15 cycles
 SCF Done:  E(RB3LYP) =  -3680.74649528     A.U. after   13 cycles
 SCF Done:  E(RB3LYP) =  -3680.74662185     A.U. after   15 cycles
 SCF Done:  E(RB3LYP) =  -3680.74668708     A.U. after   15 cycles
 SCF Done:  E(RB3LYP) =  -3680.74669412     A.U. after   12 cycles
 SCF Done:  E(RB3LYP) =  -3680.74669488     A.U. after   11 cycles
 SCF Done:  E(RB3LYP) =  -3680.74669508     A.U. after   11 cycles
 SCF Done:  E(RB3LYP) =  -3680.74669510     A.U. after   10 cycles
 Optimization completed.
    -- Stationary point found.

                         Standard orientation:
 ---------------------------------------------------------------------
 Center     Atomic      Atomic             Coordinates (Angstroms)
 Number     Number       Type             X           Y           Z
 ---------------------------------------------------------------------
      1          6           0       -0.423810    0.000018    0.000024
      2          6           0       -1.124310   -0.000034   -1.203906
      3          6           0       -2.514825   -0.000030   -1.202866
      4          6           0       -3.234834    0.000022   -0.000010
      5          6           0       -2.514854    0.000060    1.202864
      6          6           0       -1.124339    0.000055    1.203937
      7          6           0        1.070969    0.000007    0.000043
      8          6           0        1.785229   -1.208700    0.000064
      9          6           0        3.184383   -1.204049    0.000043
     10          6           0        3.876328   -0.000023    0.000015
     11          6           0        3.184409    1.204018    0.000009
     12          6           0        1.785256    1.208700    0.000015
     13          1           0       -0.597639   -0.000083   -2.149004
     14          1           0       -0.597691    0.000090    2.149048
     15          1           0        4.957451   -0.000034   -0.000012
     16         17           0        0.914622    2.718680   -0.000053
     17         17           0        4.103821    2.684749   -0.000069
     18         17           0       -3.340968    0.000096    2.740452
     19         17           0       -4.970169    0.000007   -0.000031
     20         17           0       -3.340902   -0.000092   -2.740474
     21         17           0        4.103765   -2.684799    0.000029
     22         17           0        0.914553   -2.718655    0.000062
 ---------------------------------------------------------------------

 The electronic state is 1-A.
 Alpha  occ. eigenvalues -- -101.58367-101.58367-101.58303-101.58303-101.57730
 Alpha  occ. eigenvalues -- -101.57603-101.57603 -10.28341 -10.28340 -10.28140
 Alpha  occ. eigenvalues --  -10.28140 -10.27665 -10.27409 -10.27403 -10.24846
 Alpha  occ. eigenvalues --  -10.23285 -10.23153 -10.21828 -10.21827  -9.49822
 Alpha  occ. eigenvalues --   -9.49822  -9.49773  -9.49772  -9.49191  -9.49062
 Alpha  occ. eigenvalues --   -9.49062  -7.26315  -7.26315  -7.26264  -7.26264
 Alpha  occ. eigenvalues --   -7.25691  -7.25550  -7.25550  -7.25298  -7.25298
 Alpha  occ. eigenvalues --   -7.25255  -7.25255  -7.25238  -7.25238  -7.25177
 Alpha  occ. eigenvalues --   -7.25177  -7.24673  -7.24590  -7.24541  -7.24541
 Alpha  occ. eigenvalues --   -7.24480  -7.24480  -0.96559  -0.95069  -0.92589
 Alpha  occ. eigenvalues --   -0.90159  -0.90046  -0.88253  -0.87751  -0.85855
 Alpha  occ. eigenvalues --   -0.84441  -0.79611  -0.76503  -0.75441  -0.74768
 Alpha  occ. eigenvalues --   -0.67864  -0.64202  -0.62922  -0.62044  -0.55448
 Alpha  occ. eigenvalues --   -0.55233  -0.53619  -0.53538  -0.50187  -0.48607
 Alpha  occ. eigenvalues --   -0.47494  -0.47178  -0.46764  -0.46154  -0.45290
 Alpha  occ. eigenvalues --   -0.44348  -0.43135  -0.41404  -0.41394  -0.41367
 Alpha  occ. eigenvalues --   -0.38719  -0.38117  -0.36740  -0.36687  -0.36109
 Alpha  occ. eigenvalues --   -0.35240  -0.35210  -0.34592  -0.34160  -0.33731
 Alpha  occ. eigenvalues --   -0.33478  -0.32762  -0.32020  -0.28858  -0.27508
 Alpha  occ. eigenvalues --   -0.27305  -0.27028
 Alpha virt. eigenvalues --   -0.06806  -0.06528  -0.05736  -0.05194  -0.04822
 Alpha virt. eigenvalues --   -0.03611  -0.01254  -0.00936   0.00224   0.01340
 Alpha virt. eigenvalues --    0.01418   0.01702   0.02138   0.02208   0.02611

 Mulliken charges:
               1
     1  C    0.335152
     2  C   -1.213437
     3  C   -0.276828
     4  C   -0.147817
     5  C   -0.276752
     6  C   -1.213407
     7  C   -0.175894
     8  C   -0.604056
     9  C    0.196571
    10  C   -0.654193
    11  C    0.196421
    12  C   -0.603827
    13  H    0.143065
    14  H    0.143063
    15  H    0.173565
    16  Cl   0.635531
    17  Cl   0.495286
    18  Cl   0.543661
    19  Cl   0.629425
    20  Cl   0.543671
    21  Cl   0.495284
    22  Cl   0.635517
 Sum of Mulliken charges =  -0.00000

 Dipole moment (field-independent basis, Debye):
    X=              2.1069    Y=             -0.0000    Z=              0.0000  Tot=              2.1069
 Quadrupole moment (field-independent basis, Debye-Ang):
   XX=           -157.9053   YY=           -161.0057   ZZ=           -156.1313
   XY=             -0.0000   XZ=             -0.0001   YZ=              0.0002

 Normal termination of Gaussian 16 at Mon Mar 28 02:10:36 2022.
