 Gaussian 16, Revision B.01,
 Gaussian 16:  EM64L-G16RevB.01 20-Dec-2017

 --------------------------------
 # opt b3lyp/6-311+g(d,p) scf=xqc
 --------------------------------

 -------------------
 Title Card Required
 -------------------
 Symbolic Z-matrix:
 Charge =  0 Multiplicity = 1

 SCF Done:  E(RB3LYP) =  -2301.77231244     A.U. after   15 cycles
 SCF Done:  E(RB3LYP) =  -2301.84711741     A.U. after   14 cycles
 SCF Done:  E(RB3LYP) =  -2301.85230711     A.U. after   14 cycles
 SCF Done:  E(RB3LYP) =  -2301.85287022     A.U. after   11 cycles
 SCF Done:  E(RB3LYP) =  -2301.85294118     A.U. after   12 cycles
 SCF Done:  E(RB3LYP) =  -2301.85362652     A.U. after   15 cycles
 SCF Done:  E(RB3LYP) =  -2301.86308620     A.U. after   17 cycles
 SCF Done:  E(RB3LYP) =  -2301.82310231     A.U. after   16 cycles
 SCF Done:  E(RB3LYP) =  -2301.88332064     A.U. after   17 cycles
 SCF Done:  E(RB3LYP) =  -2301.86428195     A.U. after   17 cycles
 SCF Done:  E(RB3LYP) =  -2301.89007404     A.U. after   17 cycles
 SCF Done:  E(RB3LYP) =  -2301.89123417     A.U. after   14 cycles
 SCF Done:  E(RB3LYP) =  -2301.89143316     A.U. after   15 cycles
 SCF Done:  E(RB3LYP) =  -2301.89156411     A.U. after   15 cycles
 SCF Done:  E(RB3LYP) =  -2301.89160274     A.U. after   13 cycles
 SCF Done:  E(RB3LYP) =  -2301.89163919     A.U. after   13 cycles
 SCF Done:  E(RB3LYP) =  -2301.89164065     A.U. after   10 cycles
 SCF Done:  E(RB3LYP) =  -2301.89164090     A.U. after   11 cycles
 Optimization completed.
    -- Stationary point found.

                         Standard orientation:
 ---------------------------------------------------------------------
 Center     Atomic      Atomic             Coordinates (Angstroms)
 Number     Number       Type             X           Y           Z
 ---------------------------------------------------------------------
      1          6           0        1.713466    0.000021    0.000030
      2          6           0        2.417767   -0.000767   -1.206771
      3          6           0        3.810612   -0.000783   -1.205759
      4          6           0        4.509632    0.000024   -0.000059
      5          6           0        3.810687    0.000829    1.205687
      6          6           0        2.417844    0.000812    1.206787
      7          6           0        0.218219    0.000010    0.000085
      8          6           0       -0.500033    1.207068    0.000009
      9          6           0       -1.899069    1.202747   -0.000031
     10          6           0       -2.592607   -0.000027    0.000038
     11          6           0       -1.899037   -1.202783    0.000156
     12          6           0       -0.500002   -1.207067    0.000159
     13          1           0        1.875444   -0.001366   -2.145554
     14          1           0        4.348443   -0.001396   -2.147018
     15          1           0        5.593704    0.000023   -0.000094
     16          1           0        4.348579    0.001439    2.146910
     17          1           0        1.875579    0.001404    2.145603
     18          1           0       -3.673624   -0.000041   -0.000022
     19         17           0        0.367378   -2.720040    0.000054
     20         17           0       -2.820630   -2.684546    0.000251
     21         17           0       -2.820699    2.684486   -0.000342
     22         17           0        0.367305    2.720067   -0.000069
 ---------------------------------------------------------------------

 The electronic state is 1-A.
 Alpha  occ. eigenvalues -- -101.57511-101.57511-101.57183-101.57183 -10.27191
 Alpha  occ. eigenvalues --  -10.27189 -10.27122 -10.27122 -10.23475 -10.22133
 Alpha  occ. eigenvalues --  -10.20635 -10.19105 -10.19104 -10.18912 -10.18885
 Alpha  occ. eigenvalues --  -10.18831  -9.48968  -9.48968  -9.48655  -9.48655
 Alpha  occ. eigenvalues --   -7.25458  -7.25458  -7.25145  -7.25145  -7.24446
 Alpha  occ. eigenvalues --   -7.24446  -7.24387  -7.24387  -7.24140  -7.24140
 Alpha  occ. eigenvalues --   -7.24059  -7.24059  -0.95350  -0.91540  -0.89276
 Alpha  occ. eigenvalues --   -0.87222  -0.87015  -0.83643  -0.79410  -0.76375
 Alpha  occ. eigenvalues --   -0.74775  -0.73712  -0.66432  -0.62401  -0.61805
 Alpha  occ. eigenvalues --   -0.60467  -0.54407  -0.54288  -0.52542  -0.48855
 Alpha  occ. eigenvalues --   -0.47848  -0.47293  -0.46459  -0.44999  -0.44849
 Alpha  occ. eigenvalues --   -0.43800  -0.42319  -0.42302  -0.40347  -0.38264
 Alpha  occ. eigenvalues --   -0.37324  -0.36986  -0.36221  -0.35734  -0.34896
 Alpha  occ. eigenvalues --   -0.34178  -0.32722  -0.32476  -0.32295  -0.27710
 Alpha  occ. eigenvalues --   -0.27068  -0.26734  -0.26041
 Alpha virt. eigenvalues --   -0.05607  -0.05303  -0.03710  -0.03232  -0.02604
 Alpha virt. eigenvalues --   -0.00465  -0.00448   0.00599   0.01634   0.01849
 Alpha virt. eigenvalues --    0.02728   0.03086   0.03325   0.04101   0.04338

 Mulliken charges:
               1
     1  C    1.044418
     2  C   -0.771138
     3  C   -0.309838
     4  C   -0.106459
     5  C   -0.309839
     6  C   -0.771123
     7  C   -0.011204
     8  C   -1.025020
     9  C    0.487131
    10  C   -0.620196
    11  C    0.487168
    12  C   -1.025053
    13  H    0.119129
    14  H    0.130017
    15  H    0.129944
    16  H    0.130016
    17  H    0.119128
    18  H    0.172211
    19  Cl   0.586604
    20  Cl   0.478752
    21  Cl   0.478753
    22  Cl   0.586599
 Sum of Mulliken charges =  -0.00000

 Dipole moment (field-independent basis, Debye):
    X=              1.0630    Y=             -0.0000    Z=             -0.0000  Tot=              1.0630
 Quadrupole moment (field-independent basis, Debye-Ang):
   XX=           -109.0358   YY=           -127.7611   ZZ=           -115.6999
   XY=              0.0001   XZ=              0.0001   YZ=              0.0058

 Normal termination of Gaussian 16 at Tue Mar 15 22:01:37 2022.
