 Gaussian 16, Revision B.01,
 Gaussian 16:  EM64L-G16RevB.01 20-Dec-2017

 --------------------------------
 # opt b3lyp/6-311+g(d,p) scf=xqc
 --------------------------------

 -------------------
 Title Card Required
 -------------------
 Symbolic Z-matrix:
 Charge =  0 Multiplicity = 1

 SCF Done:  E(RB3LYP) =  -3680.62462835     A.U. after   16 cycles
 SCF Done:  E(RB3LYP) =  -3680.69642419     A.U. after   16 cycles
 SCF Done:  E(RB3LYP) =  -3680.69902456     A.U. after   14 cycles
 SCF Done:  E(RB3LYP) =  -3680.68284506     A.U. after   17 cycles
 SCF Done:  E(RB3LYP) =  -3680.70098330     A.U. after   13 cycles
 SCF Done:  E(RB3LYP) =  -3680.70160954     A.U. after   12 cycles
 SCF Done:  E(RB3LYP) =  -3680.70170759     A.U. after   12 cycles
 SCF Done:  E(RB3LYP) =  -3680.70368348     A.U. after   16 cycles
 SCF Done:  E(RB3LYP) =  -3680.71588585     A.U. after   17 cycles
 SCF Done:  E(RB3LYP) =  -3680.62253388     A.U. after   17 cycles
 SCF Done:  E(RB3LYP) =  -3680.73990216     A.U. after   15 cycles
 SCF Done:  E(RB3LYP) =  -3680.74030138     A.U. after   15 cycles
 SCF Done:  E(RB3LYP) =  -3680.74076940     A.U. after   16 cycles
 SCF Done:  E(RB3LYP) =  -3680.74094860     A.U. after   15 cycles
 SCF Done:  E(RB3LYP) =  -3680.74097573     A.U. after   14 cycles
 SCF Done:  E(RB3LYP) =  -3680.74098040     A.U. after   13 cycles
 SCF Done:  E(RB3LYP) =  -3680.74098150     A.U. after   11 cycles
 SCF Done:  E(RB3LYP) =  -3680.74098204     A.U. after   11 cycles
 SCF Done:  E(RB3LYP) =  -3680.74098220     A.U. after   11 cycles
 SCF Done:  E(RB3LYP) =  -3680.74098225     A.U. after   11 cycles
 Optimization completed.
    -- Stationary point found.

                         Standard orientation:
 ---------------------------------------------------------------------
 Center     Atomic      Atomic             Coordinates (Angstroms)
 Number     Number       Type             X           Y           Z
 ---------------------------------------------------------------------
      1          6           0       -1.134197   -0.000075   -0.338936
      2          6           0       -1.727217   -0.000778   -1.603153
      3          6           0       -3.110526   -0.000916   -1.727463
      4          6           0       -3.920371   -0.000354   -0.593253
      5          6           0       -3.331553    0.000415    0.674595
      6          6           0       -1.943799    0.000552    0.795430
      7          6           0        0.353406   -0.000003   -0.195715
      8          6           0        1.069829   -1.202123   -0.127710
      9          6           0        2.464247   -1.214278    0.004306
     10          6           0        3.161277   -0.000033    0.069929
     11          6           0        2.464287    1.214218    0.004013
     12          6           0        1.069879    1.202124   -0.128051
     13          1           0       -1.109986   -0.001166   -2.493443
     14          1           0       -3.574604   -0.001468   -2.705319
     15          1           0       -1.503924    0.001129    1.784543
     16         17           0        0.196814    2.708841   -0.210718
     17         17           0        3.325816    2.718574    0.085240
     18         17           0       -4.297450    0.001210    2.129182
     19         17           0        4.888866   -0.000028    0.233194
     20         17           0       -5.654185   -0.000594   -0.794873
     21         17           0        3.325680   -2.718653    0.085816
     22         17           0        0.196631   -2.708819   -0.209591
 ---------------------------------------------------------------------

 The electronic state is 1-A.
 Alpha  occ. eigenvalues -- -101.58635-101.58530-101.58530-101.58346-101.58346
 Alpha  occ. eigenvalues -- -101.57201-101.57192 -10.29026 -10.28733 -10.28727
 Alpha  occ. eigenvalues --  -10.28577 -10.28577 -10.26737 -10.26672 -10.24645
 Alpha  occ. eigenvalues --  -10.22666 -10.21547 -10.21367 -10.21109  -9.50101
 Alpha  occ. eigenvalues --   -9.49996  -9.49995  -9.49820  -9.49819  -9.48659
 Alpha  occ. eigenvalues --   -9.48650  -7.26610  -7.26504  -7.26504  -7.26316
 Alpha  occ. eigenvalues --   -7.26315  -7.25582  -7.25490  -7.25475  -7.25475
 Alpha  occ. eigenvalues --   -7.25387  -7.25387  -7.25303  -7.25303  -7.25219
 Alpha  occ. eigenvalues --   -7.25218  -7.25141  -7.25133  -7.24141  -7.24130
 Alpha  occ. eigenvalues --   -7.24082  -7.24074  -0.97538  -0.93714  -0.92994
 Alpha  occ. eigenvalues --   -0.91938  -0.88441  -0.87777  -0.87577  -0.86393
 Alpha  occ. eigenvalues --   -0.84330  -0.79427  -0.77073  -0.75039  -0.74284
 Alpha  occ. eigenvalues --   -0.66400  -0.64795  -0.63700  -0.61364  -0.56584
 Alpha  occ. eigenvalues --   -0.55332  -0.52760  -0.52036  -0.49916  -0.48791
 Alpha  occ. eigenvalues --   -0.47770  -0.47321  -0.46940  -0.46120  -0.44672
 Alpha  occ. eigenvalues --   -0.44483  -0.43238  -0.41646  -0.40657  -0.40552
 Alpha  occ. eigenvalues --   -0.39421  -0.36823  -0.36411  -0.36372  -0.36263
 Alpha  occ. eigenvalues --   -0.36112  -0.35985  -0.34445  -0.34378  -0.33747
 Alpha  occ. eigenvalues --   -0.33224  -0.32380  -0.31799  -0.28215  -0.28005
 Alpha  occ. eigenvalues --   -0.27220  -0.26776
 Alpha virt. eigenvalues --   -0.06803  -0.06763  -0.06286  -0.05244  -0.04733
 Alpha virt. eigenvalues --   -0.02271  -0.01247  -0.00775  -0.00079   0.00940
 Alpha virt. eigenvalues --    0.01647   0.01998   0.02320   0.02406   0.02611

 Mulliken charges:
               1
     1  C    0.762873
     2  C   -0.871890
     3  C   -1.155451
     4  C    0.447721
     5  C    0.411750
     6  C   -1.855243
     7  C   -0.108290
     8  C   -1.053888
     9  C   -0.160819
    10  C    0.173162
    11  C   -0.160491
    12  C   -1.052887
    13  H    0.130447
    14  H    0.158012
    15  H    0.145370
    16  Cl   0.634988
    17  Cl   0.619602
    18  Cl   0.512641
    19  Cl   0.683719
    20  Cl   0.484063
    21  Cl   0.619592
    22  Cl   0.635019
 Sum of Mulliken charges =  -0.00000

 Dipole moment (field-independent basis, Debye):
    X=              0.7573    Y=             -0.0005    Z=             -1.1784  Tot=              1.4007
 Quadrupole moment (field-independent basis, Debye-Ang):
   XX=           -166.1894   YY=           -159.3955   ZZ=           -151.5774
   XY=              0.0017   XZ=              3.8701   YZ=              0.0037

 Normal termination of Gaussian 16 at Fri Mar 25 14:16:29 2022.
