 Gaussian 16, Revision B.01,
 Gaussian 16:  EM64L-G16RevB.01 20-Dec-2017

 --------------------------------
 # opt b3lyp/6-311+g(d,p) scf=xqc
 --------------------------------

 -------------------
 Title Card Required
 -------------------
 Symbolic Z-matrix:
 Charge =  0 Multiplicity = 1

 SCF Done:  E(RB3LYP) =  -2301.83996589     A.U. after   17 cycles
 SCF Done:  E(RB3LYP) =  -2301.87799298     A.U. after   17 cycles
 SCF Done:  E(RB3LYP) =  -2301.88463140     A.U. after   14 cycles
 SCF Done:  E(RB3LYP) =  -2301.88768978     A.U. after   13 cycles
 SCF Done:  E(RB3LYP) =  -2301.88787498     A.U. after   13 cycles
 SCF Done:  E(RB3LYP) =  -2301.88789112     A.U. after   11 cycles
 SCF Done:  E(RB3LYP) =  -2301.88789306     A.U. after   11 cycles
 SCF Done:  E(RB3LYP) =  -2301.88789249     A.U. after   11 cycles
 SCF Done:  E(RB3LYP) =  -2301.89088223     A.U. after   16 cycles
 SCF Done:  E(RB3LYP) =  -2301.89179285     A.U. after   16 cycles
 SCF Done:  E(RB3LYP) =  -2301.89853245     A.U. after   17 cycles
 SCF Done:  E(RB3LYP) =  -2301.90061382     A.U. after   17 cycles
 SCF Done:  E(RB3LYP) =  -2301.90103468     A.U. after   15 cycles
 SCF Done:  E(RB3LYP) =  -2301.90122911     A.U. after   15 cycles
 SCF Done:  E(RB3LYP) =  -2301.90129825     A.U. after   13 cycles
 SCF Done:  E(RB3LYP) =  -2301.90131618     A.U. after   13 cycles
 SCF Done:  E(RB3LYP) =  -2301.90132277     A.U. after   13 cycles
 SCF Done:  E(RB3LYP) =  -2301.90132564     A.U. after   13 cycles
 SCF Done:  E(RB3LYP) =  -2301.90132632     A.U. after   13 cycles
 SCF Done:  E(RB3LYP) =  -2301.90132643     A.U. after   10 cycles
 Optimization completed.
    -- Stationary point found.

                         Standard orientation:
 ---------------------------------------------------------------------
 Center     Atomic      Atomic             Coordinates (Angstroms)
 Number     Number       Type             X           Y           Z
 ---------------------------------------------------------------------
      1          6           0        1.074035    0.183503   -0.008148
      2          6           0        1.788293    0.828896    1.007058
      3          6           0        3.181046    0.836628    1.012038
      4          6           0        3.864393    0.197838   -0.016310
      5          6           0        3.178482   -0.445671   -1.042405
      6          6           0        1.787699   -0.452632   -1.030501
      7          6           0       -0.416016    0.231199   -0.015629
      8          6           0       -1.038923    1.483074   -0.077855
      9          6           0       -2.423471    1.581858   -0.089186
     10          6           0       -3.224816    0.450344   -0.041407
     11          6           0       -2.616259   -0.799640    0.027261
     12          6           0       -1.220899   -0.920591    0.044108
     13          1           0        1.253145    1.320186    1.811705
     14          1           0        3.727345    1.330107    1.805526
     15          1           0        3.725037   -0.932516   -1.839822
     16          1           0        1.255169   -0.950925   -1.831462
     17          1           0       -0.431169    2.376235   -0.135921
     18          1           0       -4.302844    0.528113   -0.054611
     19         17           0       -0.488588   -2.499911    0.190663
     20         17           0       -3.650883   -2.204518    0.103752
     21         17           0        5.621434    0.205032   -0.023206
     22         17           0       -3.177731    3.162925   -0.175300
 ---------------------------------------------------------------------

 The electronic state is 1-A.
 Alpha  occ. eigenvalues -- -101.57450-101.57317-101.57244-101.56381 -10.27225
 Alpha  occ. eigenvalues --  -10.26958 -10.26554 -10.25405 -10.23183 -10.21824
 Alpha  occ. eigenvalues --  -10.21470 -10.21391 -10.20476 -10.20403 -10.20371
 Alpha  occ. eigenvalues --  -10.20327  -9.48910  -9.48770  -9.48721  -9.47838
 Alpha  occ. eigenvalues --   -7.25397  -7.25241  -7.25205  -7.24391  -7.24329
 Alpha  occ. eigenvalues --   -7.24297  -7.24248  -7.24212  -7.24206  -7.24131
 Alpha  occ. eigenvalues --   -7.23323  -7.23286  -0.94494  -0.91070  -0.90248
 Alpha  occ. eigenvalues --   -0.88209  -0.86092  -0.84001  -0.79273  -0.77974
 Alpha  occ. eigenvalues --   -0.74980  -0.74015  -0.65982  -0.64505  -0.62323
 Alpha  occ. eigenvalues --   -0.60677  -0.54937  -0.53152  -0.52709  -0.49553
 Alpha  occ. eigenvalues --   -0.49199  -0.47653  -0.46243  -0.45693  -0.45430
 Alpha  occ. eigenvalues --   -0.44320  -0.42216  -0.41730  -0.40833  -0.39250
 Alpha  occ. eigenvalues --   -0.38633  -0.38408  -0.36527  -0.35266  -0.34644
 Alpha  occ. eigenvalues --   -0.33571  -0.33162  -0.32700  -0.32359  -0.28762
 Alpha  occ. eigenvalues --   -0.28400  -0.26582  -0.25765
 Alpha virt. eigenvalues --   -0.06393  -0.05327  -0.03954  -0.03109  -0.02708
 Alpha virt. eigenvalues --   -0.00966   0.00189   0.00490   0.00871   0.01423
 Alpha virt. eigenvalues --    0.02473   0.02599   0.03083   0.03924   0.04222

 Mulliken charges:
               1
     1  C    1.261143
     2  C   -0.638703
     3  C   -0.716065
     4  C    0.893705
     5  C   -0.789568
     6  C   -0.988913
     7  C   -0.358055
     8  C   -0.993768
     9  C    0.880261
    10  C   -0.916430
    11  C   -0.080264
    12  C   -0.310269
    13  H    0.133417
    14  H    0.152031
    15  H    0.152519
    16  H    0.138393
    17  H    0.154975
    18  H    0.174398
    19  Cl   0.617824
    20  Cl   0.437258
    21  Cl   0.382143
    22  Cl   0.413968
 Sum of Mulliken charges =  -0.00000

 Dipole moment (field-independent basis, Debye):
    X=             -0.2693    Y=              0.8223    Z=             -0.1023  Tot=              0.8713
 Quadrupole moment (field-independent basis, Debye-Ang):
   XX=           -126.8639   YY=           -123.0779   ZZ=           -117.3834
   XY=             -0.0909   XZ=             -0.0140   YZ=              4.1265

 Normal termination of Gaussian 16 at Tue Mar 15 22:01:39 2022.
