 Gaussian 16, Revision B.01,
 Gaussian 16:  EM64L-G16RevB.01 20-Dec-2017

 --------------------------------
 # opt b3lyp/6-311+g(d,p) scf=xqc
 --------------------------------

 -------------------
 Title Card Required
 -------------------
 Symbolic Z-matrix:
 Charge =  0 Multiplicity = 1

 SCF Done:  E(RB3LYP) =  -2761.45104605     A.U. after   16 cycles
 SCF Done:  E(RB3LYP) =  -2761.48842709     A.U. after   17 cycles
 SCF Done:  E(RB3LYP) =  -2761.49516591     A.U. after   16 cycles
 SCF Done:  E(RB3LYP) =  -2761.49838339     A.U. after   14 cycles
 SCF Done:  E(RB3LYP) =  -2761.49856062     A.U. after   12 cycles
 SCF Done:  E(RB3LYP) =  -2761.49858364     A.U. after   12 cycles
 SCF Done:  E(RB3LYP) =  -2761.49858946     A.U. after   11 cycles
 SCF Done:  E(RB3LYP) =  -2761.49858912     A.U. after   10 cycles
 SCF Done:  E(RB3LYP) =  -2761.50171977     A.U. after   17 cycles
 SCF Done:  E(RB3LYP) =  -2761.50751610     A.U. after   18 cycles
 SCF Done:  E(RB3LYP) =  -2761.51088054     A.U. after   18 cycles
 SCF Done:  E(RB3LYP) =  -2761.51186442     A.U. after   17 cycles
 SCF Done:  E(RB3LYP) =  -2761.51210226     A.U. after   14 cycles
 SCF Done:  E(RB3LYP) =  -2761.51222611     A.U. after   14 cycles
 SCF Done:  E(RB3LYP) =  -2761.51227101     A.U. after   13 cycles
 SCF Done:  E(RB3LYP) =  -2761.51227992     A.U. after   13 cycles
 SCF Done:  E(RB3LYP) =  -2761.51228191     A.U. after   11 cycles
 SCF Done:  E(RB3LYP) =  -2761.51228232     A.U. after   11 cycles
 SCF Done:  E(RB3LYP) =  -2761.51228252     A.U. after   11 cycles
 Optimization completed.
    -- Stationary point found.

                         Standard orientation:
 ---------------------------------------------------------------------
 Center     Atomic      Atomic             Coordinates (Angstroms)
 Number     Number       Type             X           Y           Z
 ---------------------------------------------------------------------
      1          6           0       -1.619145    0.527770   -0.417416
      2          6           0       -2.097803    1.289179   -1.488740
      3          6           0       -3.466166    1.496198   -1.647944
      4          6           0       -4.374298    0.957034   -0.741239
      5          6           0       -3.888029    0.206326    0.325284
      6          6           0       -2.527524   -0.016109    0.497685
      7          6           0       -0.150405    0.348560   -0.229666
      8          6           0        0.635280    1.481847   -0.015161
      9          6           0        2.008124    1.390286    0.168326
     10          6           0        2.643738    0.145103    0.142473
     11          6           0        1.871766   -1.007064   -0.080538
     12          6           0        0.485374   -0.901633   -0.268020
     13          1           0       -1.399467    1.706559   -2.204610
     14          1           0       -3.830226    2.079989   -2.485357
     15          1           0       -5.439017    1.113811   -0.855969
     16          1           0       -2.179440   -0.600884    1.338904
     17          1           0        0.162939    2.454276    0.026417
     18         17           0       -0.449135   -2.338344   -0.599939
     19         17           0        2.645644   -2.561573   -0.135098
     20         17           0       -5.019278   -0.472908    1.486891
     21         17           0        4.358892    0.026872    0.380110
     22         17           0        2.908568    2.860146    0.439233
 ---------------------------------------------------------------------

 The electronic state is 1-A.
 Alpha  occ. eigenvalues -- -101.57954-101.57886-101.57809-101.57607-101.56441
 Alpha  occ. eigenvalues --  -10.28143 -10.28010 -10.27608 -10.27439 -10.25564
 Alpha  occ. eigenvalues --  -10.23441 -10.22061 -10.22009 -10.20651 -10.20501
 Alpha  occ. eigenvalues --  -10.20436 -10.20254  -9.49417  -9.49354  -9.49265
 Alpha  occ. eigenvalues --   -9.49086  -9.47898  -7.25920  -7.25857  -7.25755
 Alpha  occ. eigenvalues --   -7.25575  -7.24898  -7.24836  -7.24813  -7.24747
 Alpha  occ. eigenvalues --   -7.24743  -7.24684  -7.24570  -7.24490  -7.24360
 Alpha  occ. eigenvalues --   -7.23381  -7.23346  -0.96117  -0.91788  -0.91166
 Alpha  occ. eigenvalues --   -0.89593  -0.86874  -0.86215  -0.84476  -0.79788
 Alpha  occ. eigenvalues --   -0.76482  -0.75272  -0.74323  -0.66356  -0.64306
 Alpha  occ. eigenvalues --   -0.62767  -0.60710  -0.55173  -0.54459  -0.52849
 Alpha  occ. eigenvalues --   -0.49825  -0.49643  -0.47941  -0.46878  -0.46229
 Alpha  occ. eigenvalues --   -0.45971  -0.45132  -0.43214  -0.42624  -0.41267
 Alpha  occ. eigenvalues --   -0.40193  -0.38888  -0.38747  -0.37824  -0.35659
 Alpha  occ. eigenvalues --   -0.35496  -0.35265  -0.34896  -0.33641  -0.33469
 Alpha  occ. eigenvalues --   -0.32774  -0.31750  -0.28975  -0.27292  -0.26931
 Alpha  occ. eigenvalues --   -0.26299
 Alpha virt. eigenvalues --   -0.06706  -0.05974  -0.04855  -0.03925  -0.03380
 Alpha virt. eigenvalues --   -0.01033  -0.00218   0.00224   0.00957   0.01591
 Alpha virt. eigenvalues --    0.02065   0.02252   0.02571   0.03365   0.03997

 Mulliken charges:
               1
     1  C    0.571846
     2  C   -0.428023
     3  C   -0.272094
     4  C   -0.667246
     5  C    0.709465
     6  C   -1.331219
     7  C    0.068015
     8  C   -0.786042
     9  C   -0.233748
    10  C   -0.166049
    11  C   -0.459568
    12  C   -0.540934
    13  H    0.129900
    14  H    0.137829
    15  H    0.152315
    16  H    0.151930
    17  H    0.156739
    18  Cl   0.636754
    19  Cl   0.582276
    20  Cl   0.408859
    21  Cl   0.631969
    22  Cl   0.547025
 Sum of Mulliken charges =  -0.00000

 Dipole moment (field-independent basis, Debye):
    X=             -1.0992    Y=              1.6923    Z=             -1.2966  Tot=              2.3986
 Quadrupole moment (field-independent basis, Debye-Ang):
   XX=           -135.7610   YY=           -131.7133   ZZ=           -130.7567
   XY=             -5.0382   XZ=              5.7039   YZ=             -4.0831

 Normal termination of Gaussian 16 at Wed Mar 16 14:47:37 2022.
