 Gaussian 16, Revision B.01,
 Gaussian 16:  EM64L-G16RevB.01 20-Dec-2017

 --------------------------------
 # opt b3lyp/6-311+g(d,p) scf=xqc
 --------------------------------

 -------------------
 Title Card Required
 -------------------
 Symbolic Z-matrix:
 Charge =  0 Multiplicity = 1

 SCF Done:  E(RB3LYP) =  -1382.59617419     A.U. after   16 cycles
 SCF Done:  E(RB3LYP) =  -1382.63470159     A.U. after   16 cycles
 SCF Done:  E(RB3LYP) =  -1382.64110151     A.U. after   15 cycles
 SCF Done:  E(RB3LYP) =  -1382.64427945     A.U. after   13 cycles
 SCF Done:  E(RB3LYP) =  -1382.64448429     A.U. after   12 cycles
 SCF Done:  E(RB3LYP) =  -1382.64450177     A.U. after   11 cycles
 SCF Done:  E(RB3LYP) =  -1382.64450380     A.U. after   10 cycles
 SCF Done:  E(RB3LYP) =  -1382.64450323     A.U. after    9 cycles
 SCF Done:  E(RB3LYP) =  -1382.64537654     A.U. after   17 cycles
 SCF Done:  E(RB3LYP) =  -1382.64043415     A.U. after   17 cycles
 SCF Done:  E(RB3LYP) =  -1382.64890759     A.U. after   15 cycles
 SCF Done:  E(RB3LYP) =  -1382.65443464     A.U. after   16 cycles
 SCF Done:  E(RB3LYP) =  -1382.65672310     A.U. after   16 cycles
 SCF Done:  E(RB3LYP) =  -1382.65762963     A.U. after   14 cycles
 SCF Done:  E(RB3LYP) =  -1382.65805056     A.U. after   13 cycles
 SCF Done:  E(RB3LYP) =  -1382.65830312     A.U. after   14 cycles
 SCF Done:  E(RB3LYP) =  -1382.65834631     A.U. after   13 cycles
 SCF Done:  E(RB3LYP) =  -1382.65836316     A.U. after   12 cycles
 SCF Done:  E(RB3LYP) =  -1382.65836520     A.U. after   12 cycles
 SCF Done:  E(RB3LYP) =  -1382.65836541     A.U. after   11 cycles
 Optimization completed.
    -- Stationary point found.

                         Standard orientation:
 ---------------------------------------------------------------------
 Center     Atomic      Atomic             Coordinates (Angstroms)
 Number     Number       Type             X           Y           Z
 ---------------------------------------------------------------------
      1          6           0        0.103487    0.701479   -0.091107
      2          6           0       -0.211428    2.056845   -0.250684
      3          6           0       -1.529629    2.494773   -0.303417
      4          6           0       -2.570360    1.580706   -0.195966
      5          6           0       -2.283227    0.229110   -0.027693
      6          6           0       -0.956133   -0.215872    0.028363
      7          6           0        1.538784    0.298357   -0.049414
      8          6           0        2.379135    0.817593    0.942527
      9          6           0        3.733749    0.490790    0.968450
     10          6           0        4.267720   -0.353128   -0.002620
     11          6           0        3.439473   -0.869758   -0.998544
     12          6           0        2.085041   -0.549548   -1.020759
     13          1           0        0.601217    2.766241   -0.351208
     14          1           0       -1.749614    3.547538   -0.434985
     15          1           0       -3.603469    1.900215   -0.238466
     16          1           0        1.965677    1.469287    1.704285
     17          1           0        4.369197    0.894213    1.748842
     18          1           0        5.321569   -0.606845    0.015276
     19          1           0        3.848848   -1.522483   -1.761357
     20          1           0        1.448733   -0.952398   -1.799875
     21         17           0       -0.622647   -1.912373    0.297537
     22         17           0       -3.623343   -0.886678    0.121443
 ---------------------------------------------------------------------

 The electronic state is 1-A.
 Alpha  occ. eigenvalues -- -101.56244-101.56063 -10.25738 -10.25618 -10.21457
 Alpha  occ. eigenvalues --  -10.20139 -10.19960 -10.19801 -10.19654 -10.18654
 Alpha  occ. eigenvalues --  -10.18567 -10.18528 -10.18478 -10.18430  -9.47706
 Alpha  occ. eigenvalues --   -9.47544  -7.24184  -7.24022  -7.23191  -7.23132
 Alpha  occ. eigenvalues --   -7.23034  -7.22956  -0.92617  -0.87754  -0.86177
 Alpha  occ. eigenvalues --   -0.84987  -0.79064  -0.75928  -0.74378  -0.73926
 Alpha  occ. eigenvalues --   -0.64808  -0.62534  -0.61064  -0.59687  -0.54190
 Alpha  occ. eigenvalues --   -0.51856  -0.50416  -0.48146  -0.46740  -0.46194
 Alpha  occ. eigenvalues --   -0.44854  -0.44011  -0.43467  -0.42289  -0.39828
 Alpha  occ. eigenvalues --   -0.39157  -0.37688  -0.36167  -0.35919  -0.35219
 Alpha  occ. eigenvalues --   -0.34457  -0.33378  -0.31287  -0.28088  -0.26646
 Alpha  occ. eigenvalues --   -0.25899  -0.25247
 Alpha virt. eigenvalues --   -0.04828  -0.03869  -0.02270  -0.01545  -0.01361
 Alpha virt. eigenvalues --   -0.00288   0.00878   0.01933   0.02550   0.02837
 Alpha virt. eigenvalues --    0.03172   0.04108   0.04446   0.04818   0.05515

 Mulliken charges:
               1
     1  C    0.846470
     2  C   -0.615211
     3  C   -0.317887
     4  C   -0.515402
     5  C    0.206707
     6  C   -0.919327
     7  C    1.299672
     8  C   -0.537397
     9  C   -0.238716
    10  C   -0.136404
    11  C   -0.314259
    12  C   -0.842298
    13  H    0.134572
    14  H    0.136366
    15  H    0.152338
    16  H    0.123344
    17  H    0.127943
    18  H    0.128224
    19  H    0.128606
    20  H    0.129873
    21  Cl   0.602641
    22  Cl   0.420145
 Sum of Mulliken charges =  -0.00000

 Dipole moment (field-independent basis, Debye):
    X=              1.3618    Y=              2.2079    Z=             -0.3581  Tot=              2.6187
 Quadrupole moment (field-independent basis, Debye-Ang):
   XX=            -89.5581   YY=            -90.7143   ZZ=            -95.4604
   XY=             -5.2586   XZ=              1.3082   YZ=              2.7554

 1\1\GINC-DAMODAR\FOpt\RB3LYP\6-311+G(d,p)\C12H8Cl2\PKC\14-Mar-2022\0\\
 # opt b3lyp/6-311+g(d,p) scf=xqc\\Title Card Required\\0,1\C,-1.633700
 7826,-0.795612271,0.0178298746\C,-0.5978290315,-0.6296258781,-0.910109
 2363\C,0.1167198054,0.5596160327,-0.9957932108\C,-0.1899850738,1.61716
 13806,-0.1486128146\C,-1.209338708,1.4736963766,0.7883557182\C,-1.9301
 233675,0.2759903701,0.8794566044\C,-2.3647731489,-2.0950991797,0.05235
 08229\C,-1.6670023749,-3.2795568044,0.31677624\C,-2.3239300005,-4.5086
 870028,0.3050849138\C,-3.6860672809,-4.5703505538,0.0203437335\C,-4.38

 Normal termination of Gaussian 16 at Mon Mar 14 20:23:15 2022.
