 Gaussian 16, Revision B.01,
 Gaussian 16:  EM64L-G16RevB.01 20-Dec-2017

 --------------------------------
 # opt b3lyp/6-311+g(d,p) scf=xqc
 --------------------------------

 -------------------
 Title Card Required
 -------------------
 Symbolic Z-matrix:
 Charge =  0 Multiplicity = 1

 SCF Done:  E(RB3LYP) =  -2301.78433375     A.U. after   16 cycles
 SCF Done:  E(RB3LYP) =  -2301.86202699     A.U. after   15 cycles
 SCF Done:  E(RB3LYP) =  -2301.86677978     A.U. after   14 cycles
 SCF Done:  E(RB3LYP) =  -2301.85272243     A.U. after   16 cycles
 SCF Done:  E(RB3LYP) =  -2301.86929885     A.U. after   13 cycles
 SCF Done:  E(RB3LYP) =  -2301.86968495     A.U. after   12 cycles
 SCF Done:  E(RB3LYP) =  -2301.86970120     A.U. after   12 cycles
 SCF Done:  E(RB3LYP) =  -2301.87103219     A.U. after   16 cycles
 SCF Done:  E(RB3LYP) =  -2301.86949500     A.U. after   18 cycles
 SCF Done:  E(RB3LYP) =  -2301.88393512     A.U. after   17 cycles
 SCF Done:  E(RB3LYP) =  -2301.89772102     A.U. after   14 cycles
 SCF Done:  E(RB3LYP) =  -2301.89890276     A.U. after   16 cycles
 SCF Done:  E(RB3LYP) =  -2301.89930782     A.U. after   15 cycles
 SCF Done:  E(RB3LYP) =  -2301.89958855     A.U. after   14 cycles
 SCF Done:  E(RB3LYP) =  -2301.89964569     A.U. after   13 cycles
 SCF Done:  E(RB3LYP) =  -2301.89967022     A.U. after   13 cycles
 SCF Done:  E(RB3LYP) =  -2301.89970135     A.U. after   14 cycles
 SCF Done:  E(RB3LYP) =  -2301.89971061     A.U. after   13 cycles
 SCF Done:  E(RB3LYP) =  -2301.89971162     A.U. after   11 cycles
 SCF Done:  E(RB3LYP) =  -2301.89971172     A.U. after   11 cycles
 Optimization completed.
    -- Stationary point found.

                         Standard orientation:
 ---------------------------------------------------------------------
 Center     Atomic      Atomic             Coordinates (Angstroms)
 Number     Number       Type             X           Y           Z
 ---------------------------------------------------------------------
      1          6           0        0.136497   -0.000077   -0.290765
      2          6           0       -0.410625    0.000195   -1.575979
      3          6           0       -1.788235    0.000275   -1.753512
      4          6           0       -2.640500    0.000087   -0.651001
      5          6           0       -2.099936   -0.000208    0.637606
      6          6           0       -0.717736   -0.000283    0.810889
      7          6           0        1.615991    0.000002   -0.090964
      8          6           0        2.349618   -1.192423    0.007324
      9          6           0        3.728573   -1.206413    0.192534
     10          6           0        4.413507    0.000169    0.284684
     11          6           0        3.728395    1.206680    0.192708
     12          6           0        2.349446    1.192532    0.007549
     13          1           0        0.240306    0.000319   -2.441916
     14          1           0       -2.215015    0.000502   -2.748261
     15          1           0       -0.315632   -0.000424    1.815895
     16          1           0        4.250540   -2.151484    0.262877
     17          1           0        5.487360    0.000238    0.429284
     18          1           0        4.250247    2.151805    0.263140
     19         17           0        1.517528    2.736070   -0.103808
     20         17           0       -3.120939   -0.000483    2.055699
     21         17           0       -4.366739    0.000227   -0.918547
     22         17           0        1.517927   -2.736059   -0.104372
 ---------------------------------------------------------------------

 The electronic state is 1-A.
 Alpha  occ. eigenvalues -- -101.56816-101.56816-101.56566-101.56535 -10.26404
 Alpha  occ. eigenvalues --  -10.26404 -10.25965 -10.25906 -10.22787 -10.21636
 Alpha  occ. eigenvalues --  -10.21024 -10.20788 -10.20780 -10.20668 -10.20584
 Alpha  occ. eigenvalues --  -10.20232  -9.48285  -9.48284  -9.48024  -9.47995
 Alpha  occ. eigenvalues --   -7.24751  -7.24751  -7.24503  -7.24475  -7.23772
 Alpha  occ. eigenvalues --   -7.23772  -7.23716  -7.23716  -7.23506  -7.23476
 Alpha  occ. eigenvalues --   -7.23450  -7.23420  -0.93471  -0.92434  -0.88978
 Alpha  occ. eigenvalues --   -0.86936  -0.85992  -0.84398  -0.79566  -0.76391
 Alpha  occ. eigenvalues --   -0.75404  -0.73926  -0.65471  -0.63947  -0.62454
 Alpha  occ. eigenvalues --   -0.60696  -0.55135  -0.52212  -0.51425  -0.51095
 Alpha  occ. eigenvalues --   -0.48890  -0.47532  -0.45582  -0.45546  -0.45399
 Alpha  occ. eigenvalues --   -0.42964  -0.42845  -0.41678  -0.39805  -0.39157
 Alpha  occ. eigenvalues --   -0.38646  -0.37951  -0.35711  -0.35011  -0.33949
 Alpha  occ. eigenvalues --   -0.33760  -0.33432  -0.32527  -0.31749  -0.27978
 Alpha  occ. eigenvalues --   -0.27455  -0.26728  -0.26047
 Alpha virt. eigenvalues --   -0.05062  -0.04775  -0.04303  -0.03704  -0.02097
 Alpha virt. eigenvalues --   -0.01376  -0.00398   0.01124   0.01590   0.02011
 Alpha virt. eigenvalues --    0.02045   0.02510   0.03328   0.03885   0.04531

 Mulliken charges:
               1
     1  C    0.392573
     2  C   -0.815711
     3  C   -1.346156
     4  C    0.432964
     5  C    0.135878
     6  C   -1.245009
     7  C    0.384529
     8  C   -0.068017
     9  C   -0.094165
    10  C   -0.309143
    11  C   -0.094538
    12  C   -0.068321
    13  H    0.129856
    14  H    0.155451
    15  H    0.144610
    16  H    0.150818
    17  H    0.142366
    18  H    0.150819
    19  Cl   0.421625
    20  Cl   0.503619
    21  Cl   0.474386
    22  Cl   0.421567
 Sum of Mulliken charges =  -0.00000

 Dipole moment (field-independent basis, Debye):
    X=              3.7193    Y=              0.0004    Z=             -0.8030  Tot=              3.8050
 Quadrupole moment (field-independent basis, Debye-Ang):
   XX=           -111.6159   YY=           -123.6336   ZZ=           -117.0566
   XY=              0.0003   XZ=              3.6653   YZ=             -0.0013

 Normal termination of Gaussian 16 at Wed Mar 16 02:57:31 2022.
