 Gaussian 16, Revision B.01,
 Gaussian 16:  EM64L-G16RevB.01 20-Dec-2017

 --------------------------------
 # opt b3lyp/6-311+g(d,p) scf=xqc
 --------------------------------

 -------------------
 Title Card Required
 -------------------
 Symbolic Z-matrix:
 Charge =  0 Multiplicity = 1

 SCF Done:  E(RB3LYP) =  -2301.78360634     A.U. after   16 cycles
 SCF Done:  E(RB3LYP) =  -2301.86342659     A.U. after   16 cycles
 SCF Done:  E(RB3LYP) =  -2301.86898045     A.U. after   15 cycles
 SCF Done:  E(RB3LYP) =  -2301.85536633     A.U. after   16 cycles
 SCF Done:  E(RB3LYP) =  -2301.87121583     A.U. after   13 cycles
 SCF Done:  E(RB3LYP) =  -2301.87149636     A.U. after   12 cycles
 SCF Done:  E(RB3LYP) =  -2301.87157906     A.U. after   13 cycles
 SCF Done:  E(RB3LYP) =  -2301.87703736     A.U. after   18 cycles
 SCF Done:  E(RB3LYP) =  -2301.87178428     A.U. after   16 cycles
 SCF Done:  E(RB3LYP) =  -2301.89718416     A.U. after   17 cycles
 SCF Done:  E(RB3LYP) =  -2301.90126728     A.U. after   11 cycles
 SCF Done:  E(RB3LYP) =  -2301.90203077     A.U. after   17 cycles
 SCF Done:  E(RB3LYP) =  -2301.90211285     A.U. after   13 cycles
 SCF Done:  E(RB3LYP) =  -2301.90214265     A.U. after   13 cycles
 SCF Done:  E(RB3LYP) =  -2301.90219616     A.U. after   13 cycles
 SCF Done:  E(RB3LYP) =  -2301.90224866     A.U. after   14 cycles
 SCF Done:  E(RB3LYP) =  -2301.90227431     A.U. after   13 cycles
 SCF Done:  E(RB3LYP) =  -2301.90228129     A.U. after   12 cycles
 SCF Done:  E(RB3LYP) =  -2301.90228167     A.U. after   11 cycles
 SCF Done:  E(RB3LYP) =  -2301.90228172     A.U. after   11 cycles
 Optimization completed.
    -- Stationary point found.

                         Standard orientation:
 ---------------------------------------------------------------------
 Center     Atomic      Atomic             Coordinates (Angstroms)
 Number     Number       Type             X           Y           Z
 ---------------------------------------------------------------------
      1          6           0       -1.006736   -0.000374    0.481286
      2          6           0       -1.500826   -0.001145    1.788039
      3          6           0       -2.874427   -0.001255    2.015335
      4          6           0       -3.769802   -0.000613    0.948372
      5          6           0       -3.265851    0.000139   -0.347948
      6          6           0       -1.897638    0.000250   -0.595083
      7          6           0        0.464877   -0.000255    0.228008
      8          6           0        1.196424    1.190490    0.103064
      9          6           0        2.567885    1.211475   -0.131289
     10          6           0        3.237544    0.000365   -0.245897
     11          6           0        2.568300   -1.211023   -0.131948
     12          6           0        1.196821   -1.190662    0.102440
     13          1           0       -0.811012   -0.001638    2.623591
     14          1           0       -3.254284   -0.001849    3.030405
     15          1           0       -4.838995   -0.000700    1.116676
     16          1           0       -1.530524    0.000821   -1.613389
     17          1           0        3.095358    2.150370   -0.221499
     18          1           0        3.096086   -2.149694   -0.222660
     19         17           0        0.377431   -2.735242    0.241281
     20         17           0       -4.381050    0.000932   -1.707862
     21         17           0        4.965112    0.000747   -0.540906
     22         17           0        0.376386    2.734642    0.242817
 ---------------------------------------------------------------------

 The electronic state is 1-A.
 Alpha  occ. eigenvalues -- -101.57493-101.57256-101.57256-101.56068 -10.27157
 Alpha  occ. eigenvalues --  -10.27156 -10.26964 -10.25106 -10.23074 -10.21670
 Alpha  occ. eigenvalues --  -10.21669 -10.21551 -10.20182 -10.20027 -10.19938
 Alpha  occ. eigenvalues --  -10.19699  -9.48946  -9.48724  -9.48723  -9.47525
 Alpha  occ. eigenvalues --   -7.25420  -7.25198  -7.25198  -7.24424  -7.24385
 Alpha  occ. eigenvalues --   -7.24208  -7.24208  -7.24149  -7.24148  -7.23985
 Alpha  occ. eigenvalues --   -7.23008  -7.22975  -0.94362  -0.90838  -0.89625
 Alpha  occ. eigenvalues --   -0.89562  -0.85472  -0.83262  -0.79939  -0.76482
 Alpha  occ. eigenvalues --   -0.75858  -0.74270  -0.65235  -0.63541  -0.62772
 Alpha  occ. eigenvalues --   -0.60804  -0.55185  -0.53196  -0.52588  -0.49616
 Alpha  occ. eigenvalues --   -0.49002  -0.47684  -0.46434  -0.45509  -0.44789
 Alpha  occ. eigenvalues --   -0.44051  -0.42196  -0.41836  -0.40447  -0.38633
 Alpha  occ. eigenvalues --   -0.38450  -0.38110  -0.37771  -0.34892  -0.34015
 Alpha  occ. eigenvalues --   -0.33951  -0.32806  -0.32612  -0.32410  -0.27890
 Alpha  occ. eigenvalues --   -0.27423  -0.27338  -0.26249
 Alpha virt. eigenvalues --   -0.05597  -0.05243  -0.04048  -0.03387  -0.03108
 Alpha virt. eigenvalues --   -0.00755   0.00334   0.01037   0.01370   0.01376
 Alpha virt. eigenvalues --    0.02038   0.02107   0.02750   0.03948   0.04287

 Mulliken charges:
               1
     1  C    0.509492
     2  C   -0.818408
     3  C   -0.513728
     4  C   -0.512597
     5  C    0.481225
     6  C   -1.008541
     7  C    0.484818
     8  C   -0.419074
     9  C   -0.494556
    10  C    0.704450
    11  C   -0.495174
    12  C   -0.418554
    13  H    0.125868
    14  H    0.136832
    15  H    0.149640
    16  H    0.138191
    17  H    0.170379
    18  H    0.170384
    19  Cl   0.390595
    20  Cl   0.407877
    21  Cl   0.420262
    22  Cl   0.390617
 Sum of Mulliken charges =  -0.00000

 Dipole moment (field-independent basis, Debye):
    X=              0.4835    Y=             -0.0007    Z=              1.4756  Tot=              1.5527
 Quadrupole moment (field-independent basis, Debye-Ang):
   XX=           -121.2311   YY=           -122.3134   ZZ=           -116.8185
   XY=              0.0033   XZ=             -6.3989   YZ=             -0.0038

 Normal termination of Gaussian 16 at Wed Mar 16 02:45:46 2022.
