 Gaussian 16, Revision B.01,
 Gaussian 16:  EM64L-G16RevB.01 20-Dec-2017

 --------------------------------
 # opt b3lyp/6-311+g(d,p) scf=xqc
 --------------------------------

 -------------------
 Title Card Required
 -------------------
 Symbolic Z-matrix:
 Charge =  0 Multiplicity = 1

 SCF Done:  E(RB3LYP) =  -2761.50208885     A.U. after   17 cycles
 SCF Done:  E(RB3LYP) =  -2761.50796471     A.U. after   15 cycles
 SCF Done:  E(RB3LYP) =  -2761.51366089     A.U. after   17 cycles
 SCF Done:  E(RB3LYP) =  -2761.51649139     A.U. after   18 cycles
 SCF Done:  E(RB3LYP) =  -2761.51811361     A.U. after   15 cycles
 SCF Done:  E(RB3LYP) =  -2761.51886164     A.U. after   14 cycles
 SCF Done:  E(RB3LYP) =  -2761.51894222     A.U. after   13 cycles
 SCF Done:  E(RB3LYP) =  -2761.51895655     A.U. after   12 cycles
 SCF Done:  E(RB3LYP) =  -2761.51895789     A.U. after   12 cycles
 SCF Done:  E(RB3LYP) =  -2761.51895793     A.U. after   11 cycles
 Optimization completed.
    -- Stationary point found.

                         Standard orientation:
 ---------------------------------------------------------------------
 Center     Atomic      Atomic             Coordinates (Angstroms)
 Number     Number       Type             X           Y           Z
 ---------------------------------------------------------------------
      1          6           0       -0.771214   -0.239443   -0.253895
      2          6           0       -1.279181   -1.203513   -1.131857
      3          6           0       -2.643618   -1.458660   -1.191760
      4          6           0       -3.526874   -0.760801   -0.371421
      5          6           0       -3.028850    0.200175    0.514367
      6          6           0       -1.661778    0.456555    0.567139
      7          6           0        0.695693   -0.001847   -0.170381
      8          6           0        1.537899   -1.078771    0.129901
      9          6           0        2.918387   -0.936226    0.220825
     10          6           0        3.495719    0.318141    0.007660
     11          6           0        2.681806    1.404171   -0.299560
     12          6           0        1.303791    1.243949   -0.387004
     13          1           0       -0.607177   -1.747091   -1.785296
     14          1           0       -3.035334   -2.197806   -1.878699
     15          1           0       -1.299084    1.199240    1.265128
     16          1           0        1.102129   -2.051994    0.316101
     17          1           0        3.127501    2.372618   -0.479720
     18         17           0        0.357242    2.653504   -0.832626
     19         17           0       -4.088232    1.095882    1.575593
     20         17           0        5.218367    0.564977    0.109712
     21         17           0       -5.233647   -1.110873   -0.475699
     22         17           0        3.886346   -2.335099    0.608808
 ---------------------------------------------------------------------

 The electronic state is 1-A.
 Alpha  occ. eigenvalues -- -101.57803-101.57700-101.57536-101.57139-101.57066
 Alpha  occ. eigenvalues --  -10.27436 -10.27158 -10.27098 -10.26601 -10.26546
 Alpha  occ. eigenvalues --  -10.23308 -10.22361 -10.22253 -10.22156 -10.21329
 Alpha  occ. eigenvalues --  -10.21264 -10.20982  -9.49257  -9.49154  -9.49006
 Alpha  occ. eigenvalues --   -9.48595  -9.48524  -7.25744  -7.25640  -7.25478
 Alpha  occ. eigenvalues --   -7.25077  -7.25006  -7.24736  -7.24677  -7.24632
 Alpha  occ. eigenvalues --   -7.24577  -7.24488  -7.24437  -7.24079  -7.24019
 Alpha  occ. eigenvalues --   -7.24005  -7.23947  -0.94844  -0.93460  -0.90829
 Alpha  occ. eigenvalues --   -0.88341  -0.87524  -0.86837  -0.84388  -0.79727
 Alpha  occ. eigenvalues --   -0.77235  -0.75864  -0.73637  -0.66310  -0.65338
 Alpha  occ. eigenvalues --   -0.63474  -0.60574  -0.55311  -0.53718  -0.52329
 Alpha  occ. eigenvalues --   -0.51153  -0.49853  -0.48344  -0.46631  -0.46376
 Alpha  occ. eigenvalues --   -0.46063  -0.44829  -0.43660  -0.43075  -0.41436
 Alpha  occ. eigenvalues --   -0.40079  -0.39811  -0.39310  -0.36994  -0.36328
 Alpha  occ. eigenvalues --   -0.35775  -0.34942  -0.34291  -0.33757  -0.33502
 Alpha  occ. eigenvalues --   -0.32952  -0.32279  -0.29167  -0.27890  -0.27231
 Alpha  occ. eigenvalues --   -0.25860
 Alpha virt. eigenvalues --   -0.06932  -0.05881  -0.04740  -0.03565  -0.02754
 Alpha virt. eigenvalues --   -0.02067  -0.00698  -0.00199   0.00643   0.01797
 Alpha virt. eigenvalues --    0.01854   0.02383   0.02511   0.03502   0.03770

 Mulliken charges:
               1
     1  C    1.056664
     2  C   -0.425120
     3  C   -0.838589
     4  C    0.039106
     5  C   -0.094776
     6  C   -1.186967
     7  C    0.063100
     8  C   -1.031184
     9  C    0.090716
    10  C    0.076137
    11  C   -0.935038
    12  C   -0.014674
    13  H    0.136071
    14  H    0.155875
    15  H    0.157837
    16  H    0.157024
    17  H    0.176072
    18  Cl   0.397724
    19  Cl   0.527119
    20  Cl   0.487471
    21  Cl   0.473865
    22  Cl   0.531567
 Sum of Mulliken charges =  -0.00000

 Dipole moment (field-independent basis, Debye):
    X=              0.7215    Y=             -0.6940    Z=             -0.8302  Tot=              1.3005
 Quadrupole moment (field-independent basis, Debye-Ang):
   XX=           -145.9254   YY=           -129.4103   ZZ=           -132.1370
   XY=              4.4355   XZ=              1.3326   YZ=              3.3543

 Normal termination of Gaussian 16 at Fri Apr  1 22:54:21 2022.
