 Gaussian 16, Revision B.01,
 Gaussian 16:  EM64L-G16RevB.01 20-Dec-2017

 --------------------------------
 # opt b3lyp/6-311+g(d,p) scf=xqc
 --------------------------------

 -------------------
 Title Card Required
 -------------------
 Symbolic Z-matrix:
 Charge =  0 Multiplicity = 1

 SCF Done:  E(RB3LYP) =  -1842.22177829     A.U. after   16 cycles
 SCF Done:  E(RB3LYP) =  -1842.25988849     A.U. after   16 cycles
 SCF Done:  E(RB3LYP) =  -1842.26653871     A.U. after   16 cycles
 SCF Done:  E(RB3LYP) =  -1842.26993968     A.U. after   13 cycles
 SCF Done:  E(RB3LYP) =  -1842.27019783     A.U. after   13 cycles
 SCF Done:  E(RB3LYP) =  -1842.27020929     A.U. after   12 cycles
 SCF Done:  E(RB3LYP) =  -1842.27021035     A.U. after   10 cycles
 SCF Done:  E(RB3LYP) =  -1842.27021028     A.U. after    9 cycles
 SCF Done:  E(RB3LYP) =  -1842.27039996     A.U. after   14 cycles
 SCF Done:  E(RB3LYP) =  -1842.25909169     A.U. after   17 cycles
 SCF Done:  E(RB3LYP) =  -1842.28024226     A.U. after   14 cycles
 SCF Done:  E(RB3LYP) =  -1842.28074649     A.U. after   14 cycles
 SCF Done:  E(RB3LYP) =  -1842.28110083     A.U. after   14 cycles
 SCF Done:  E(RB3LYP) =  -1842.28127934     A.U. after   13 cycles
 SCF Done:  E(RB3LYP) =  -1842.28139875     A.U. after   14 cycles
 SCF Done:  E(RB3LYP) =  -1842.28143695     A.U. after   13 cycles
 SCF Done:  E(RB3LYP) =  -1842.28152894     A.U. after   13 cycles
 SCF Done:  E(RB3LYP) =  -1842.28153249     A.U. after   12 cycles
 SCF Done:  E(RB3LYP) =  -1842.28153273     A.U. after   10 cycles
 SCF Done:  E(RB3LYP) =  -1842.28153278     A.U. after   11 cycles
 Optimization completed.
    -- Stationary point found.

                         Standard orientation:
 ---------------------------------------------------------------------
 Center     Atomic      Atomic             Coordinates (Angstroms)
 Number     Number       Type             X           Y           Z
 ---------------------------------------------------------------------
      1          6           0        1.771193   -0.488615   -0.140661
      2          6           0        2.578026    0.572425    0.296705
      3          6           0        3.959251    0.563017    0.117536
      4          6           0        4.568597   -0.519517   -0.508591
      5          6           0        3.795033   -1.591611   -0.947141
      6          6           0        2.417284   -1.569466   -0.761342
      7          6           0        0.292020   -0.529541    0.025566
      8          6           0       -0.525995    0.453449   -0.537176
      9          6           0       -1.911004    0.384428   -0.417509
     10          6           0       -2.501859   -0.676356    0.275769
     11          6           0       -1.692777   -1.660304    0.838629
     12          6           0       -0.310713   -1.589651    0.712143
     13          1           0        4.546873    1.398291    0.476313
     14          1           0        5.643319   -0.522054   -0.647982
     15          1           0        4.260214   -2.438782   -1.437177
     16          1           0        1.811630   -2.395145   -1.117138
     17          1           0       -0.091921    1.280148   -1.083448
     18          1           0       -2.155127   -2.476584    1.378750
     19          1           0        0.305057   -2.357538    1.165111
     20         17           0        1.880230    1.950753    1.143414
     21         17           0       -2.877741    1.640227   -1.155092
     22         17           0       -4.235100   -0.801443    0.455326
 ---------------------------------------------------------------------

 The electronic state is 1-A.
 Alpha  occ. eigenvalues -- -101.56528-101.56427-101.56170 -10.25855 -10.25798
 Alpha  occ. eigenvalues --  -10.25414 -10.21630 -10.21376 -10.20520 -10.20465
 Alpha  occ. eigenvalues --  -10.20127 -10.20103 -10.20042 -10.19936 -10.19655
 Alpha  occ. eigenvalues --   -9.47986  -9.47886  -9.47645  -7.24464  -7.24366
 Alpha  occ. eigenvalues --   -7.24104  -7.23469  -7.23412  -7.23368  -7.23312
 Alpha  occ. eigenvalues --   -7.23134  -7.23084  -0.92859  -0.91042  -0.86849
 Alpha  occ. eigenvalues --   -0.85977  -0.85066  -0.79440  -0.76428  -0.75461
 Alpha  occ. eigenvalues --   -0.73466  -0.64892  -0.64291  -0.62090  -0.60037
 Alpha  occ. eigenvalues --   -0.54779  -0.51856  -0.51129  -0.48955  -0.48701
 Alpha  occ. eigenvalues --   -0.47022  -0.45265  -0.45071  -0.44688  -0.42887
 Alpha  occ. eigenvalues --   -0.41168  -0.40913  -0.39034  -0.37956  -0.37735
 Alpha  occ. eigenvalues --   -0.35671  -0.34941  -0.34703  -0.33676  -0.32463
 Alpha  occ. eigenvalues --   -0.31672  -0.28754  -0.27084  -0.26650  -0.25261
 Alpha virt. eigenvalues --   -0.05600  -0.04380  -0.03535  -0.02184  -0.01503
 Alpha virt. eigenvalues --   -0.00637   0.00063   0.01031   0.01918   0.02353
 Alpha virt. eigenvalues --    0.02732   0.03319   0.03975   0.04445   0.04791

 Mulliken charges:
               1
     1  C    1.326375
     2  C   -0.037177
     3  C   -0.883048
     4  C   -0.138623
     5  C   -0.221061
     6  C   -0.650281
     7  C    0.784506
     8  C   -1.443571
     9  C    0.321823
    10  C    0.193045
    11  C   -1.152533
    12  C   -0.507899
    13  H    0.150216
    14  H    0.135973
    15  H    0.133242
    16  H    0.134753
    17  H    0.157414
    18  H    0.153801
    19  H    0.131444
    20  Cl   0.426598
    21  Cl   0.505797
    22  Cl   0.479206
 Sum of Mulliken charges =  -0.00000

 Dipole moment (field-independent basis, Debye):
    X=              3.1519    Y=             -2.2097    Z=             -0.3233  Tot=              3.8629
 Quadrupole moment (field-independent basis, Debye-Ang):
   XX=           -103.0626   YY=           -103.1927   ZZ=           -109.6083
   XY=             -1.1584   XZ=             -3.8565   YZ=             -0.8761

 1\1\GINC-DAMODAR\FOpt\RB3LYP\6-311+G(d,p)\C12H7Cl3\PKC\15-Mar-2022\0\\
 # opt b3lyp/6-311+g(d,p) scf=xqc\\Title Card Required\\0,1\C,-2.561712
 1655,-1.9931389551,-0.2534859543\C,-1.5151541231,-1.7037905568,-1.1417
 803988\C,-0.8284599723,-0.492969806,-1.0934391987\C,-1.1784907591,0.46
 38921139,-0.1462788059\C,-2.2184183145,0.2088923086,0.7445849222\C,-2.
 8958939506,-1.0038171706,0.6848541047\C,-3.3280724127,-3.2698083844,-0
 .2616760784\C,-2.6901326985,-4.4970050943,-0.0638956821\C,-3.418364892
 8,-5.6825921692,-0.026540541\C,-4.8065935114,-5.6570566803,-0.19138927

 Normal termination of Gaussian 16 at Tue Mar 15 05:18:41 2022.
