 Gaussian 16, Revision B.01,
 Gaussian 16:  EM64L-G16RevB.01 20-Dec-2017

 --------------------------------
 # opt b3lyp/6-311+g(d,p) scf=xqc
 --------------------------------

 -------------------
 Title Card Required
 -------------------
 Symbolic Z-matrix:
 Charge =  0 Multiplicity = 1

 SCF Done:  E(RB3LYP) =  -2761.40292311     A.U. after   16 cycles
 SCF Done:  E(RB3LYP) =  -2761.48156533     A.U. after   16 cycles
 SCF Done:  E(RB3LYP) =  -2761.48671126     A.U. after   13 cycles
 SCF Done:  E(RB3LYP) =  -2761.47274535     A.U. after   16 cycles
 SCF Done:  E(RB3LYP) =  -2761.48932960     A.U. after   13 cycles
 SCF Done:  E(RB3LYP) =  -2761.48969320     A.U. after   12 cycles
 SCF Done:  E(RB3LYP) =  -2761.48976658     A.U. after   12 cycles
 SCF Done:  E(RB3LYP) =  -2761.49279818     A.U. after   16 cycles
 SCF Done:  E(RB3LYP) =  -2761.50094206     A.U. after   17 cycles
 SCF Done:  E(RB3LYP) =  -2761.50959791     A.U. after   17 cycles
 SCF Done:  E(RB3LYP) =  -2761.51913066     A.U. after   18 cycles
 SCF Done:  E(RB3LYP) =  -2761.51937241     A.U. after   17 cycles
 SCF Done:  E(RB3LYP) =  -2761.51940679     A.U. after   17 cycles
 SCF Done:  E(RB3LYP) =  -2761.51965212     A.U. after   14 cycles
 SCF Done:  E(RB3LYP) =  -2761.51966792     A.U. after   12 cycles
 SCF Done:  E(RB3LYP) =  -2761.51967900     A.U. after   13 cycles
 SCF Done:  E(RB3LYP) =  -2761.51967981     A.U. after   12 cycles
 SCF Done:  E(RB3LYP) =  -2761.51968004     A.U. after   11 cycles
 SCF Done:  E(RB3LYP) =  -2761.51968013     A.U. after   11 cycles
 SCF Done:  E(RB3LYP) =  -2761.51968017     A.U. after   11 cycles
 Optimization completed.
    -- Stationary point found.

                         Standard orientation:
 ---------------------------------------------------------------------
 Center     Atomic      Atomic             Coordinates (Angstroms)
 Number     Number       Type             X           Y           Z
 ---------------------------------------------------------------------
      1          6           0        0.486081   -0.000116   -0.327612
      2          6           0        1.072181   -0.000829   -1.595558
      3          6           0        2.454652   -0.000936   -1.730154
      4          6           0        3.272438   -0.000337   -0.601779
      5          6           0        2.692489    0.000352    0.669833
      6          6           0        1.305552    0.000476    0.800235
      7          6           0       -0.998490   -0.000028   -0.173660
      8          6           0       -1.736479    1.190958   -0.098180
      9          6           0       -3.120431    1.211418    0.043985
     10          6           0       -3.796004    0.000016    0.113696
     11          6           0       -3.120403   -1.211409    0.044636
     12          6           0       -1.736455   -1.191000   -0.097556
     13          1           0        0.448582   -0.001295   -2.481396
     14          1           0        2.911958   -0.001486   -2.711222
     15          1           0        0.872669    0.001039    1.792401
     16          1           0       -3.653078    2.150138    0.098752
     17          1           0       -3.653034   -2.150107    0.099940
     18         17           0       -0.908281   -2.734553   -0.181797
     19         17           0        3.668878    0.001144    2.118242
     20         17           0       -5.538784    0.000039    0.292833
     21         17           0        5.005484   -0.000520   -0.815749
     22         17           0       -0.908349    2.734498   -0.183281
 ---------------------------------------------------------------------

 The electronic state is 1-A.
 Alpha  occ. eigenvalues -- -101.57757-101.57605-101.57605-101.56892-101.56872
 Alpha  occ. eigenvalues --  -10.27512 -10.27512 -10.27286 -10.26355 -10.26296
 Alpha  occ. eigenvalues --  -10.23476 -10.22124 -10.21988 -10.21987 -10.21106
 Alpha  occ. eigenvalues --  -10.20978 -10.20669  -9.49210  -9.49073  -9.49072
 Alpha  occ. eigenvalues --   -9.48350  -9.48331  -7.25685  -7.25547  -7.25547
 Alpha  occ. eigenvalues --   -7.24831  -7.24812  -7.24688  -7.24648  -7.24557
 Alpha  occ. eigenvalues --   -7.24556  -7.24497  -7.24497  -7.23832  -7.23811
 Alpha  occ. eigenvalues --   -7.23774  -7.23755  -0.94767  -0.93130  -0.90159
 Alpha  occ. eigenvalues --   -0.89916  -0.87287  -0.86276  -0.83575  -0.79484
 Alpha  occ. eigenvalues --   -0.76814  -0.76707  -0.73846  -0.65213  -0.64180
 Alpha  occ. eigenvalues --   -0.63890  -0.61111  -0.55735  -0.53552  -0.52294
 Alpha  occ. eigenvalues --   -0.51523  -0.49317  -0.48326  -0.46764  -0.46134
 Alpha  occ. eigenvalues --   -0.45820  -0.44515  -0.43460  -0.42949  -0.41462
 Alpha  occ. eigenvalues --   -0.39817  -0.39524  -0.38801  -0.38425  -0.36058
 Alpha  occ. eigenvalues --   -0.35539  -0.34331  -0.34251  -0.34047  -0.33000
 Alpha  occ. eigenvalues --   -0.32909  -0.32074  -0.27940  -0.27691  -0.27665
 Alpha  occ. eigenvalues --   -0.26452
 Alpha virt. eigenvalues --   -0.05992  -0.05613  -0.04760  -0.04252  -0.03431
 Alpha virt. eigenvalues --   -0.01904  -0.00647   0.00574   0.01140   0.01238
 Alpha virt. eigenvalues --    0.01812   0.01879   0.02368   0.03163   0.03888

 Mulliken charges:
               1
     1  C    0.449622
     2  C   -0.939888
     3  C   -1.282210
     4  C    0.437555
     5  C    0.362588
     6  C   -1.697597
     7  C    0.652360
     8  C   -0.339590
     9  C   -0.502691
    10  C    0.716941
    11  C   -0.502694
    12  C   -0.339911
    13  H    0.131241
    14  H    0.157260
    15  H    0.146816
    16  H    0.170174
    17  H    0.170173
    18  Cl   0.399633
    19  Cl   0.508118
    20  Cl   0.429879
    21  Cl   0.472602
    22  Cl   0.399619
 Sum of Mulliken charges =  -0.00000

 Dipole moment (field-independent basis, Debye):
    X=             -1.8262    Y=             -0.0006    Z=             -1.0887  Tot=              2.1261
 Quadrupole moment (field-independent basis, Debye-Ang):
   XX=           -139.9092   YY=           -133.6194   ZZ=           -128.6234
   XY=             -0.0017   XZ=             -3.0647   YZ=              0.0032

 Normal termination of Gaussian 16 at Sun Apr  3 11:30:58 2022.
