 Gaussian 16, Revision B.01,
 Gaussian 16:  EM64L-G16RevB.01 20-Dec-2017

 --------------------------------
 # opt b3lyp/6-311+g(d,p) scf=xqc
 --------------------------------

 -------------------
 Title Card Required
 -------------------
 Symbolic Z-matrix:
 Charge =  0 Multiplicity = 1

 SCF Done:  E(RB3LYP) =  -1842.22369864     A.U. after   16 cycles
 SCF Done:  E(RB3LYP) =  -1842.26342004     A.U. after   16 cycles
 SCF Done:  E(RB3LYP) =  -1842.26991163     A.U. after   16 cycles
 SCF Done:  E(RB3LYP) =  -1842.27333614     A.U. after   14 cycles
 SCF Done:  E(RB3LYP) =  -1842.27358911     A.U. after   12 cycles
 SCF Done:  E(RB3LYP) =  -1842.27360024     A.U. after   12 cycles
 SCF Done:  E(RB3LYP) =  -1842.27360195     A.U. after   10 cycles
 SCF Done:  E(RB3LYP) =  -1842.27367825     A.U. after   14 cycles
 SCF Done:  E(RB3LYP) =  -1842.26997081     A.U. after   17 cycles
 SCF Done:  E(RB3LYP) =  -1842.27134502     A.U. after   14 cycles
 SCF Done:  E(RB3LYP) =  -1842.27859098     A.U. after   16 cycles
 SCF Done:  E(RB3LYP) =  -1842.24139821     A.U. after   15 cycles
 SCF Done:  E(RB3LYP) =  -1842.28268534     A.U. after   17 cycles
 SCF Done:  E(RB3LYP) =  -1842.28166243     A.U. after   16 cycles
 SCF Done:  E(RB3LYP) =  -1842.28504557     A.U. after   15 cycles
 SCF Done:  E(RB3LYP) =  -1842.28518889     A.U. after   14 cycles
 SCF Done:  E(RB3LYP) =  -1842.28521573     A.U. after   13 cycles
 SCF Done:  E(RB3LYP) =  -1842.28521902     A.U. after   12 cycles
 SCF Done:  E(RB3LYP) =  -1842.28521987     A.U. after   12 cycles
 SCF Done:  E(RB3LYP) =  -1842.28522004     A.U. after   11 cycles
 Optimization completed.
    -- Stationary point found.

                         Standard orientation:
 ---------------------------------------------------------------------
 Center     Atomic      Atomic             Coordinates (Angstroms)
 Number     Number       Type             X           Y           Z
 ---------------------------------------------------------------------
      1          6           0        0.522398    0.456156   -0.057047
      2          6           0        1.199552   -0.723170   -0.400458
      3          6           0        2.575960   -0.858818   -0.234879
      4          6           0        3.299486    0.206223    0.286142
      5          6           0        2.672568    1.397496    0.634023
      6          6           0        1.298418    1.505778    0.457025
      7          6           0       -0.945735    0.649626   -0.216735
      8          6           0       -1.855987   -0.176046    0.454047
      9          6           0       -3.219301    0.056232    0.321621
     10          6           0       -3.710042    1.092679   -0.466733
     11          6           0       -2.801776    1.912385   -1.131142
     12          6           0       -1.431171    1.697916   -1.007179
     13          1           0        3.070399   -1.777848   -0.516994
     14          1           0        3.245959    2.220042    1.040690
     15          1           0        0.799499    2.425199    0.740236
     16          1           0       -1.506208   -0.986075    1.079965
     17          1           0       -4.776836    1.251328   -0.556440
     18          1           0       -3.168365    2.721157   -1.752635
     19          1           0       -0.733196    2.334938   -1.537661
     20         17           0        0.343730   -2.084686   -1.111396
     21         17           0       -4.350992   -0.982771    1.178996
     22         17           0        5.033293    0.038781    0.501265
 ---------------------------------------------------------------------

 The electronic state is 1-A.
 Alpha  occ. eigenvalues -- -101.56802-101.56663-101.55983 -10.26246 -10.25979
 Alpha  occ. eigenvalues --  -10.25015 -10.21998 -10.21332 -10.21077 -10.20876
 Alpha  occ. eigenvalues --  -10.20640 -10.20010 -10.19954 -10.19893 -10.19629
 Alpha  occ. eigenvalues --   -9.48257  -9.48137  -9.47441  -7.24722  -7.24604
 Alpha  occ. eigenvalues --   -7.23900  -7.23738  -7.23701  -7.23623  -7.23569
 Alpha  occ. eigenvalues --   -7.22925  -7.22890  -0.92759  -0.90609  -0.88871
 Alpha  occ. eigenvalues --   -0.85796  -0.84124  -0.79554  -0.76856  -0.75589
 Alpha  occ. eigenvalues --   -0.73776  -0.64981  -0.64334  -0.62109  -0.60171
 Alpha  occ. eigenvalues --   -0.54927  -0.52229  -0.51437  -0.48920  -0.48870
 Alpha  occ. eigenvalues --   -0.47169  -0.45672  -0.45149  -0.44630  -0.42775
 Alpha  occ. eigenvalues --   -0.41260  -0.40981  -0.39448  -0.38037  -0.37816
 Alpha  occ. eigenvalues --   -0.37515  -0.34720  -0.33705  -0.33412  -0.32776
 Alpha  occ. eigenvalues --   -0.32327  -0.28718  -0.27671  -0.26465  -0.25534
 Alpha virt. eigenvalues --   -0.05740  -0.04812  -0.03423  -0.02386  -0.01342
 Alpha virt. eigenvalues --   -0.00708   0.00455   0.01100   0.01434   0.01864
 Alpha virt. eigenvalues --    0.02449   0.02982   0.03958   0.04264   0.04914

 Mulliken charges:
               1
     1  C    1.256566
     2  C   -0.235134
     3  C   -1.498035
     4  C    0.978909
     5  C   -0.611334
     6  C   -0.720685
     7  C    0.572375
     8  C   -1.382784
     9  C    0.740924
    10  C   -0.653571
    11  C   -0.291152
    12  C   -0.405034
    13  H    0.172860
    14  H    0.152799
    15  H    0.141685
    16  H    0.150949
    17  H    0.150326
    18  H    0.135537
    19  H    0.126624
    20  Cl   0.427261
    21  Cl   0.403908
    22  Cl   0.387007
 Sum of Mulliken charges =  -0.00000

 Dipole moment (field-independent basis, Debye):
    X=              0.0532    Y=              2.3921    Z=             -0.4603  Tot=              2.4366
 Quadrupole moment (field-independent basis, Debye-Ang):
   XX=           -113.1534   YY=           -101.9547   ZZ=           -109.5159
   XY=             -3.8675   XZ=              3.8311   YZ=             -1.7405

 1\1\GINC-DAMODAR\FOpt\RB3LYP\6-311+G(d,p)\C12H7Cl3\PKC\15-Mar-2022\0\\
 # opt b3lyp/6-311+g(d,p) scf=xqc\\Title Card Required\\0,1\C,-1.786347
 4576,-1.6871078255,-0.4433549829\C,-0.7311092914,-1.3940685198,-1.3196
 412145\C,-0.0364706692,-0.1880950969,-1.2611498151\C,-0.4000361246,0.7
 525095356,-0.3059805506\C,-1.4443647689,0.5093630329,0.579138341\C,-2.
 1210526413,-0.701739807,0.4974984356\C,-2.5593273124,-2.9600034446,-0.
 4675577886\C,-1.9239696649,-4.190022098,-0.2587132417\C,-2.6774087403,
 -5.357141196,-0.2421004873\C,-4.0560114004,-5.3388231025,-0.4309657193

 Normal termination of Gaussian 16 at Tue Mar 15 04:07:16 2022.
