 Gaussian 16, Revision B.01,
 Gaussian 16:  EM64L-G16RevB.01 20-Dec-2017

 --------------------------------
 # opt b3lyp/6-311+g(d,p) scf=xqc
 --------------------------------

 -------------------
 Title Card Required
 -------------------
 Symbolic Z-matrix:
 Charge =  0 Multiplicity = 1

 SCF Done:  E(RB3LYP) =  -3221.07410485     A.U. after   16 cycles
 SCF Done:  E(RB3LYP) =  -3221.11314828     A.U. after   17 cycles
 SCF Done:  E(RB3LYP) =  -3221.12039148     A.U. after   16 cycles
 SCF Done:  E(RB3LYP) =  -3221.12371334     A.U. after   14 cycles
 SCF Done:  E(RB3LYP) =  -3221.12392286     A.U. after   12 cycles
 SCF Done:  E(RB3LYP) =  -3221.12393388     A.U. after   11 cycles
 SCF Done:  E(RB3LYP) =  -3221.12393497     A.U. after   10 cycles
 SCF Done:  E(RB3LYP) =  -3221.12393469     A.U. after   10 cycles
 SCF Done:  E(RB3LYP) =  -3221.03054393     A.U. after   17 cycles
 SCF Done:  E(RB3LYP) =  -3221.10409475     A.U. after   15 cycles
 SCF Done:  E(RB3LYP) =  -3221.12922677     A.U. after   16 cycles
 SCF Done:  E(RB3LYP) =  -3221.13059299     A.U. after   17 cycles
 SCF Done:  E(RB3LYP) =  -3221.13412708     A.U. after   15 cycles
 SCF Done:  E(RB3LYP) =  -3221.13448698     A.U. after   16 cycles
 SCF Done:  E(RB3LYP) =  -3221.13274225     A.U. after   16 cycles
 SCF Done:  E(RB3LYP) =  -3221.13471297     A.U. after   13 cycles
 SCF Done:  E(RB3LYP) =  -3221.13473158     A.U. after   12 cycles
 SCF Done:  E(RB3LYP) =  -3221.13473868     A.U. after   12 cycles
 SCF Done:  E(RB3LYP) =  -3221.13473988     A.U. after   11 cycles
 SCF Done:  E(RB3LYP) =  -3221.13473999     A.U. after   10 cycles
 Optimization completed.
    -- Stationary point found.

                         Standard orientation:
 ---------------------------------------------------------------------
 Center     Atomic      Atomic             Coordinates (Angstroms)
 Number     Number       Type             X           Y           Z
 ---------------------------------------------------------------------
      1          6           0        0.482025   -0.036733    0.025606
      2          6           0        1.112007    1.075267    0.586669
      3          6           0        2.494976    1.210921    0.522811
      4          6           0        3.285427    0.241079   -0.107177
      5          6           0        2.641407   -0.869717   -0.672309
      6          6           0        1.260674   -1.008583   -0.605947
      7          6           0       -1.002021   -0.145223    0.066688
      8          6           0       -1.770379    0.881284   -0.493679
      9          6           0       -3.160968    0.848828   -0.491763
     10          6           0       -3.822464   -0.238080    0.085875
     11          6           0       -3.081155   -1.268165    0.656970
     12          6           0       -1.692169   -1.220223    0.646549
     13          1           0        0.533527    1.837211    1.092371
     14          1           0        0.800029   -1.875032   -1.060094
     15          1           0       -1.270347    1.720147   -0.960668
     16          1           0       -3.591399   -2.102603    1.117799
     17         17           0       -5.561693   -0.341289    0.118217
     18         17           0        5.010268    0.409478   -0.187808
     19         17           0       -4.035417    2.169283   -1.222143
     20         17           0        3.220015    2.620750    1.254227
     21         17           0       -0.834599   -2.532929    1.434732
     22         17           0        3.556957   -2.113744   -1.486117
 ---------------------------------------------------------------------

 The electronic state is 1-A.
 Alpha  occ. eigenvalues -- -101.58040-101.57922-101.57859-101.57805-101.57705
 Alpha  occ. eigenvalues -- -101.57618 -10.27738 -10.27701 -10.27461 -10.27447
 Alpha  occ. eigenvalues --  -10.27446 -10.27425 -10.23718 -10.23196 -10.22552
 Alpha  occ. eigenvalues --  -10.22507 -10.21872 -10.21792  -9.49494  -9.49375
 Alpha  occ. eigenvalues --   -9.49329  -9.49265  -9.49162  -9.49076  -7.25982
 Alpha  occ. eigenvalues --   -7.25863  -7.25802  -7.25765  -7.25650  -7.25564
 Alpha  occ. eigenvalues --   -7.24973  -7.24913  -7.24853  -7.24810  -7.24797
 Alpha  occ. eigenvalues --   -7.24760  -7.24748  -7.24664  -7.24641  -7.24580
 Alpha  occ. eigenvalues --   -7.24555  -7.24494  -0.95454  -0.94858  -0.91205
 Alpha  occ. eigenvalues --   -0.90097  -0.88668  -0.87962  -0.86251  -0.84484
 Alpha  occ. eigenvalues --   -0.79750  -0.76628  -0.76357  -0.74189  -0.66820
 Alpha  occ. eigenvalues --   -0.65156  -0.63950  -0.60962  -0.55482  -0.54483
 Alpha  occ. eigenvalues --   -0.52841  -0.52557  -0.50210  -0.48599  -0.47068
 Alpha  occ. eigenvalues --   -0.46894  -0.46686  -0.45393  -0.45017  -0.43845
 Alpha  occ. eigenvalues --   -0.41919  -0.41170  -0.40977  -0.39746  -0.38783
 Alpha  occ. eigenvalues --   -0.37308  -0.36693  -0.35340  -0.35272  -0.34796
 Alpha  occ. eigenvalues --   -0.34260  -0.34037  -0.33574  -0.33143  -0.32074
 Alpha  occ. eigenvalues --   -0.29288  -0.27727  -0.27526  -0.26313
 Alpha virt. eigenvalues --   -0.07430  -0.06306  -0.05387  -0.04030  -0.03837
 Alpha virt. eigenvalues --   -0.03034  -0.00978  -0.00415   0.00738   0.01291
 Alpha virt. eigenvalues --    0.01645   0.02012   0.02208   0.02390   0.03282

 Mulliken charges:
               1
     1  C    0.923973
     2  C   -0.799327
     3  C   -0.398779
     4  C    0.025214
     5  C   -0.495821
     6  C   -1.249217
     7  C   -0.014346
     8  C   -1.033898
     9  C    0.072644
    10  C    0.075980
    11  C   -0.832601
    12  C   -0.018605
    13  H    0.155022
    14  H    0.158540
    15  H    0.159421
    16  H    0.176474
    17  Cl   0.491522
    18  Cl   0.616999
    19  Cl   0.531979
    20  Cl   0.520178
    21  Cl   0.389011
    22  Cl   0.545638
 Sum of Mulliken charges =  -0.00000

 Dipole moment (field-independent basis, Debye):
    X=             -1.1228    Y=             -0.1748    Z=              0.0273  Tot=              1.1366
 Quadrupole moment (field-independent basis, Debye-Ang):
   XX=           -155.2446   YY=           -143.6690   ZZ=           -145.9810
   XY=              2.4154   XZ=             -1.5563   YZ=              0.1004

 Normal termination of Gaussian 16 at Thu Mar 24 18:13:58 2022.
