 Gaussian 16, Revision B.01,
 Gaussian 16:  EM64L-G16RevB.01 20-Dec-2017

 --------------------------------
 # opt b3lyp/6-311+g(d,p) scf=xqc
 --------------------------------

 -------------------
 Title Card Required
 -------------------
 Symbolic Z-matrix:
 Charge =  0 Multiplicity = 1

 SCF Done:  E(RB3LYP) =  -2761.40585804     A.U. after   16 cycles
 SCF Done:  E(RB3LYP) =  -2761.48431295     A.U. after   15 cycles
 SCF Done:  E(RB3LYP) =  -2761.49157776     A.U. after   14 cycles
 SCF Done:  E(RB3LYP) =  -2761.49227723     A.U. after   12 cycles
 SCF Done:  E(RB3LYP) =  -2761.49237180     A.U. after   12 cycles
 SCF Done:  E(RB3LYP) =  -2761.49243140     A.U. after   12 cycles
 SCF Done:  E(RB3LYP) =  -2761.49575296     A.U. after   16 cycles
 SCF Done:  E(RB3LYP) =  -2761.44853967     A.U. after   17 cycles
 SCF Done:  E(RB3LYP) =  -2761.51430121     A.U. after   16 cycles
 SCF Done:  E(RB3LYP) =  -2761.51556752     A.U. after   18 cycles
 SCF Done:  E(RB3LYP) =  -2761.52227380     A.U. after   15 cycles
 SCF Done:  E(RB3LYP) =  -2761.52259095     A.U. after   14 cycles
 SCF Done:  E(RB3LYP) =  -2761.52283073     A.U. after   15 cycles
 SCF Done:  E(RB3LYP) =  -2761.52303774     A.U. after   16 cycles
 SCF Done:  E(RB3LYP) =  -2761.52312787     A.U. after   15 cycles
 SCF Done:  E(RB3LYP) =  -2761.52319175     A.U. after   15 cycles
 SCF Done:  E(RB3LYP) =  -2761.52319158     A.U. after   12 cycles
 SCF Done:  E(RB3LYP) =  -2761.52319102     A.U. after   10 cycles
 SCF Done:  E(RB3LYP) =  -2761.52319394     A.U. after   10 cycles
 SCF Done:  E(RB3LYP) =  -2761.52319016     A.U. after   11 cycles
 Optimization completed.
    -- Stationary point found.

                         Standard orientation:
 ---------------------------------------------------------------------
 Center     Atomic      Atomic             Coordinates (Angstroms)
 Number     Number       Type             X           Y           Z
 ---------------------------------------------------------------------
      1          6           0       -0.671090   -0.000003    0.000005
      2          6           0       -1.368052    0.008523    1.210040
      3          6           0       -2.758148    0.008411    1.191837
      4          6           0       -3.475030   -0.000003   -0.000001
      5          6           0       -2.758144   -0.008416   -1.191836
      6          6           0       -1.368047   -0.008525   -1.210034
      7          6           0        0.822276    0.000000    0.000005
      8          6           0        1.562802    1.191465   -0.008286
      9          6           0        2.953991    1.211508   -0.008420
     10          6           0        3.633059    0.000002    0.000006
     11          6           0        2.953994   -1.211506    0.008426
     12          6           0        1.562804   -1.191465    0.008294
     13          1           0       -0.836641    0.015138    2.152446
     14          1           0       -4.556054   -0.000002   -0.000003
     15          1           0       -0.836632   -0.015135   -2.152437
     16          1           0        3.489521    2.150161   -0.014935
     17          1           0        3.489525   -2.150158    0.014934
     18         17           0        0.729631   -2.734182    0.019086
     19         17           0       -3.636472   -0.019207   -2.711341
     20         17           0        5.384748    0.000004    0.000002
     21         17           0       -3.636483    0.019210    2.711337
     22         17           0        0.729623    2.734178   -0.019096
 ---------------------------------------------------------------------

 The electronic state is 1-A.
 Alpha  occ. eigenvalues -- -101.57808-101.57686-101.57686-101.56912-101.56912
 Alpha  occ. eigenvalues --  -10.27616 -10.27615 -10.27362 -10.26289 -10.26288
 Alpha  occ. eigenvalues --  -10.23614 -10.22709 -10.22064 -10.22063 -10.21282
 Alpha  occ. eigenvalues --  -10.20946 -10.20945  -9.49261  -9.49154  -9.49153
 Alpha  occ. eigenvalues --   -9.48368  -9.48367  -7.25736  -7.25629  -7.25629
 Alpha  occ. eigenvalues --   -7.24836  -7.24836  -7.24739  -7.24698  -7.24637
 Alpha  occ. eigenvalues --   -7.24637  -7.24578  -7.24578  -7.23847  -7.23847
 Alpha  occ. eigenvalues --   -7.23810  -7.23810  -0.94875  -0.92675  -0.90157
 Alpha  occ. eigenvalues --   -0.90009  -0.88967  -0.85273  -0.83608  -0.79717
 Alpha  occ. eigenvalues --   -0.76897  -0.75696  -0.75338  -0.66107  -0.63996
 Alpha  occ. eigenvalues --   -0.62578  -0.61632  -0.55552  -0.53658  -0.53398
 Alpha  occ. eigenvalues --   -0.51758  -0.49480  -0.48119  -0.46849  -0.46318
 Alpha  occ. eigenvalues --   -0.45792  -0.44600  -0.43275  -0.42985  -0.41420
 Alpha  occ. eigenvalues --   -0.40025  -0.39669  -0.38903  -0.38561  -0.37821
 Alpha  occ. eigenvalues --   -0.34869  -0.34417  -0.33976  -0.33594  -0.33074
 Alpha  occ. eigenvalues --   -0.32844  -0.32806  -0.27914  -0.27851  -0.27776
 Alpha  occ. eigenvalues --   -0.26773
 Alpha virt. eigenvalues --   -0.06055  -0.05712  -0.05092  -0.04308  -0.03519
 Alpha virt. eigenvalues --   -0.01432  -0.00680   0.00594   0.01016   0.01238
 Alpha virt. eigenvalues --    0.01633   0.01824   0.02002   0.02644   0.04056

 Mulliken charges:
               1
     1  C    0.313321
     2  C   -1.407121
     3  C    0.518495
     4  C   -0.795931
     5  C    0.518492
     6  C   -1.407130
     7  C    0.412465
     8  C   -0.344083
     9  C   -0.481808
    10  C    0.663169
    11  C   -0.481810
    12  C   -0.344080
    13  H    0.143679
    14  H    0.170567
    15  H    0.143679
    16  H    0.171442
    17  H    0.171442
    18  Cl   0.388448
    19  Cl   0.416173
    20  Cl   0.425971
    21  Cl   0.416172
    22  Cl   0.388449
 Sum of Mulliken charges =  -0.00000

 Dipole moment (field-independent basis, Debye):
    X=              1.2574    Y=              0.0000    Z=              0.0000  Tot=              1.2574
 Quadrupole moment (field-independent basis, Debye-Ang):
   XX=           -133.5228   YY=           -133.4293   ZZ=           -134.9676
   XY=             -0.0000   XZ=             -0.0000   YZ=             -0.0108

 Normal termination of Gaussian 16 at Sat Apr  2 14:20:40 2022.
