 Gaussian 16, Revision B.01,
 Gaussian 16:  EM64L-G16RevB.01 20-Dec-2017

 --------------------------------
 # opt b3lyp/6-311+g(d,p) scf=xqc
 --------------------------------

 -------------------
 Title Card Required
 -------------------
 Symbolic Z-matrix:
 Charge =  0 Multiplicity = 1

 SCF Done:  E(RB3LYP) =  -1842.22465644     A.U. after   16 cycles
 SCF Done:  E(RB3LYP) =  -1842.26389069     A.U. after   16 cycles
 SCF Done:  E(RB3LYP) =  -1842.27004264     A.U. after   15 cycles
 SCF Done:  E(RB3LYP) =  -1842.27335893     A.U. after   13 cycles
 SCF Done:  E(RB3LYP) =  -1842.27359270     A.U. after   12 cycles
 SCF Done:  E(RB3LYP) =  -1842.27360311     A.U. after   10 cycles
 SCF Done:  E(RB3LYP) =  -1842.27360441     A.U. after   10 cycles
 SCF Done:  E(RB3LYP) =  -1842.27389143     A.U. after   16 cycles
 SCF Done:  E(RB3LYP) =  -1842.20143793     A.U. after   15 cycles
 SCF Done:  E(RB3LYP) =  -1842.21156979     A.U. after   17 cycles
 SCF Done:  E(RB3LYP) =  -1842.27393233     A.U. after   11 cycles
 SCF Done:  E(RB3LYP) =  -1842.28101988     A.U. after   17 cycles
 SCF Done:  E(RB3LYP) =  -1842.28284666     A.U. after   17 cycles
 SCF Done:  E(RB3LYP) =  -1842.27287002     A.U. after   16 cycles
 SCF Done:  E(RB3LYP) =  -1842.28504077     A.U. after   15 cycles
 SCF Done:  E(RB3LYP) =  -1842.28525375     A.U. after   14 cycles
 SCF Done:  E(RB3LYP) =  -1842.28529246     A.U. after   13 cycles
 SCF Done:  E(RB3LYP) =  -1842.28529981     A.U. after   13 cycles
 SCF Done:  E(RB3LYP) =  -1842.28530105     A.U. after   12 cycles
 SCF Done:  E(RB3LYP) =  -1842.28530115     A.U. after   11 cycles
 Optimization completed.
    -- Stationary point found.

                         Standard orientation:
 ---------------------------------------------------------------------
 Center     Atomic      Atomic             Coordinates (Angstroms)
 Number     Number       Type             X           Y           Z
 ---------------------------------------------------------------------
      1          6           0       -0.705461    0.082383    0.174670
      2          6           0       -1.710816   -0.861768   -0.081728
      3          6           0       -3.026828   -0.466128   -0.279378
      4          6           0       -3.387160    0.875745   -0.229222
      5          6           0       -2.404460    1.824259    0.030058
      6          6           0       -1.083088    1.432247    0.229413
      7          6           0        0.689287   -0.399502    0.381991
      8          6           0        0.968491   -1.316268    1.401904
      9          6           0        2.262275   -1.800370    1.579894
     10          6           0        3.294991   -1.386312    0.743053
     11          6           0        3.007380   -0.479137   -0.272310
     12          6           0        1.724471    0.018913   -0.462384
     13          1           0       -1.448061   -1.910028   -0.141777
     14          1           0       -4.414750    1.176706   -0.385646
     15          1           0       -2.663901    2.873518    0.086656
     16          1           0        0.174027   -1.637543    2.065205
     17          1           0        2.471184   -2.503366    2.377949
     18          1           0        4.303334   -1.757474    0.872771
     19          1           0        1.531819    0.718809   -1.264451
     20         17           0        0.089514    2.687780    0.604396
     21         17           0       -4.252541   -1.681746   -0.604435
     22         17           0        4.296666    0.046613   -1.347401
 ---------------------------------------------------------------------

 The electronic state is 1-A.
 Alpha  occ. eigenvalues -- -101.56681-101.56537-101.56000 -10.25843 -10.25694
 Alpha  occ. eigenvalues --  -10.25043 -10.22383 -10.21391 -10.20994 -10.20934
 Alpha  occ. eigenvalues --  -10.20906 -10.20063 -10.19985 -10.19917 -10.19672
 Alpha  occ. eigenvalues --   -9.48136  -9.48010  -9.47457  -7.24600  -7.24475
 Alpha  occ. eigenvalues --   -7.23917  -7.23616  -7.23583  -7.23495  -7.23446
 Alpha  occ. eigenvalues --   -7.22941  -7.22907  -0.92642  -0.90580  -0.88995
 Alpha  occ. eigenvalues --   -0.85675  -0.83711  -0.80541  -0.76645  -0.74966
 Alpha  occ. eigenvalues --   -0.73655  -0.66306  -0.63961  -0.61867  -0.59884
 Alpha  occ. eigenvalues --   -0.54438  -0.52668  -0.51439  -0.49148  -0.48945
 Alpha  occ. eigenvalues --   -0.47064  -0.45438  -0.45199  -0.44661  -0.42621
 Alpha  occ. eigenvalues --   -0.41149  -0.40976  -0.39536  -0.38162  -0.37918
 Alpha  occ. eigenvalues --   -0.37772  -0.34707  -0.33183  -0.32990  -0.32778
 Alpha  occ. eigenvalues --   -0.32341  -0.29690  -0.27229  -0.26346  -0.25553
 Alpha virt. eigenvalues --   -0.05885  -0.04697  -0.03407  -0.02448  -0.00749
 Alpha virt. eigenvalues --   -0.00621   0.00580   0.00731   0.01079   0.02024
 Alpha virt. eigenvalues --    0.02506   0.03058   0.04006   0.04404   0.04756

 Mulliken charges:
               1
     1  C    0.867358
     2  C   -1.309917
     3  C    1.028576
     4  C   -0.585188
     5  C   -1.028380
     6  C    0.158005
     7  C    0.701904
     8  C   -0.435329
     9  C   -0.317514
    10  C   -0.655831
    11  C    0.748980
    12  C   -1.436138
    13  H    0.155553
    14  H    0.155126
    15  H    0.156420
    16  H    0.129121
    17  H    0.136063
    18  H    0.150896
    19  H    0.153778
    20  Cl   0.429377
    21  Cl   0.394055
    22  Cl   0.403083
 Sum of Mulliken charges =  -0.00000

 Dipole moment (field-independent basis, Debye):
    X=             -0.9035    Y=             -0.5162    Z=              1.0905  Tot=              1.5073
 Quadrupole moment (field-independent basis, Debye-Ang):
   XX=           -109.4772   YY=           -105.1394   ZZ=           -108.2525
   XY=             -9.0327   XZ=              3.5389   YZ=             -5.0802

 1\1\GINC-DAMODAR\FOpt\RB3LYP\6-311+G(d,p)\C12H7Cl3\PKC\15-Mar-2022\0\\
 # opt b3lyp/6-311+g(d,p) scf=xqc\\Title Card Required\\0,1\C,-0.307163
 0214,-0.4676568751,-0.0104532576\C,1.0870660269,-0.5037117696,0.140300
 7965\C,1.8325422084,0.6673301407,0.1605307485\C,1.2204376909,1.9090386
 265,0.0322078618\C,-0.1598524859,1.9627678254,-0.1243708407\C,-0.91186
 78619,0.7908222659,-0.1457037789\C,-1.0560838912,-1.75580244,-0.028212
 4474\C,-0.7462935051,-2.7321813392,-0.9818108579\C,-1.4155662466,-3.95
 3650117,-0.9831633089\C,-2.3964749732,-4.2250489639,-0.0332105211\C,-2

 Normal termination of Gaussian 16 at Tue Mar 15 04:13:03 2022.
