 Gaussian 16, Revision B.01,
 Gaussian 16:  EM64L-G16RevB.01 20-Dec-2017

 --------------------------------
 # opt b3lyp/6-311+g(d,p) scf=xqc
 --------------------------------

 -------------------
 Title Card Required
 -------------------
 Symbolic Z-matrix:
 Charge =  0 Multiplicity = 1

 SCF Done:  E(RB3LYP) =  -2301.84028048     A.U. after   16 cycles
 SCF Done:  E(RB3LYP) =  -2301.88025254     A.U. after   17 cycles
 SCF Done:  E(RB3LYP) =  -2301.88683033     A.U. after   16 cycles
 SCF Done:  E(RB3LYP) =  -2301.89019696     A.U. after   13 cycles
 SCF Done:  E(RB3LYP) =  -2301.89041555     A.U. after   12 cycles
 SCF Done:  E(RB3LYP) =  -2301.89042585     A.U. after   12 cycles
 SCF Done:  E(RB3LYP) =  -2301.89042685     A.U. after   10 cycles
 SCF Done:  E(RB3LYP) =  -2301.89068148     A.U. after   15 cycles
 SCF Done:  E(RB3LYP) =  -2301.82304797     A.U. after   17 cycles
 SCF Done:  E(RB3LYP) =  -2301.84045009     A.U. after   16 cycles
 SCF Done:  E(RB3LYP) =  -2301.89722368     A.U. after   18 cycles
 SCF Done:  E(RB3LYP) =  -2301.89911758     A.U. after   18 cycles
 SCF Done:  E(RB3LYP) =  -2301.90012770     A.U. after   15 cycles
 SCF Done:  E(RB3LYP) =  -2301.90144643     A.U. after   14 cycles
 SCF Done:  E(RB3LYP) =  -2301.90172148     A.U. after   13 cycles
 SCF Done:  E(RB3LYP) =  -2301.90182073     A.U. after   14 cycles
 SCF Done:  E(RB3LYP) =  -2301.90182870     A.U. after   13 cycles
 SCF Done:  E(RB3LYP) =  -2301.90182967     A.U. after   11 cycles
 SCF Done:  E(RB3LYP) =  -2301.90183002     A.U. after   10 cycles
 SCF Done:  E(RB3LYP) =  -2301.90183020     A.U. after   11 cycles
 Optimization completed.
    -- Stationary point found.

                         Standard orientation:
 ---------------------------------------------------------------------
 Center     Atomic      Atomic             Coordinates (Angstroms)
 Number     Number       Type             X           Y           Z
 ---------------------------------------------------------------------
      1          6           0       -1.298703    0.450171    0.383638
      2          6           0       -1.685239    1.377087    1.358468
      3          6           0       -3.021736    1.746606    1.488629
      4          6           0       -3.991256    1.205903    0.648502
      5          6           0       -3.597464    0.289324   -0.321873
      6          6           0       -2.270041   -0.095324   -0.464118
      7          6           0        0.138065    0.090641    0.226706
      8          6           0        1.063597    1.107427   -0.035494
      9          6           0        2.421537    0.850400   -0.191418
     10          6           0        2.890041   -0.461451   -0.084887
     11          6           0        1.992232   -1.490374    0.182104
     12          6           0        0.638072   -1.215560    0.334937
     13          1           0       -0.940396    1.795686    2.025098
     14          1           0       -3.313614    2.458481    2.251980
     15          1           0       -5.032158    1.487331    0.741581
     16          1           0       -1.994829   -0.805009   -1.232831
     17          1           0        0.711174    2.125732   -0.137928
     18          1           0        2.354119   -2.504547    0.279366
     19         17           0       -0.417015   -2.564319    0.722251
     20         17           0       -4.805914   -0.395207   -1.400432
     21         17           0        4.579272   -0.851605   -0.272166
     22         17           0        3.499015    2.182497   -0.524855
 ---------------------------------------------------------------------

 The electronic state is 1-A.
 Alpha  occ. eigenvalues -- -101.57542-101.57431-101.57184-101.56267 -10.27128
 Alpha  occ. eigenvalues --  -10.26849 -10.26749 -10.25356 -10.22897 -10.21939
 Alpha  occ. eigenvalues --  -10.21802 -10.21791 -10.20411 -10.20297 -10.20230
 Alpha  occ. eigenvalues --  -10.20023  -9.48997  -9.48886  -9.48656  -9.47725
 Alpha  occ. eigenvalues --   -7.25484  -7.25371  -7.25128  -7.24476  -7.24418
 Alpha  occ. eigenvalues --   -7.24364  -7.24310  -7.24185  -7.24138  -7.24087
 Alpha  occ. eigenvalues --   -7.23208  -7.23173  -0.94484  -0.91289  -0.90160
 Alpha  occ. eigenvalues --   -0.88004  -0.86052  -0.84107  -0.80073  -0.76761
 Alpha  occ. eigenvalues --   -0.75440  -0.73866  -0.66196  -0.64778  -0.62452
 Alpha  occ. eigenvalues --   -0.60172  -0.54934  -0.53163  -0.52542  -0.49538
 Alpha  occ. eigenvalues --   -0.49428  -0.47689  -0.46301  -0.45799  -0.45061
 Alpha  occ. eigenvalues --   -0.44395  -0.42313  -0.41795  -0.40683  -0.39210
 Alpha  occ. eigenvalues --   -0.38470  -0.38278  -0.36665  -0.35099  -0.34652
 Alpha  occ. eigenvalues --   -0.33493  -0.33301  -0.32755  -0.32549  -0.29256
 Alpha  occ. eigenvalues --   -0.27611  -0.26724  -0.25823
 Alpha virt. eigenvalues --   -0.06422  -0.05506  -0.03860  -0.03116  -0.02379
 Alpha virt. eigenvalues --   -0.00866   0.00035   0.00400   0.00958   0.01748
 Alpha virt. eigenvalues --    0.02106   0.02583   0.03382   0.03834   0.04178

 Mulliken charges:
               1
     1  C    0.498797
     2  C   -0.407382
     3  C   -0.306810
     4  C   -0.655088
     5  C    0.703293
     6  C   -1.358534
     7  C    0.765731
     8  C   -1.170416
     9  C    0.479035
    10  C    0.033821
    11  C   -1.138312
    12  C   -0.209937
    13  H    0.129578
    14  H    0.137047
    15  H    0.151792
    16  H    0.152330
    17  H    0.156721
    18  H    0.174853
    19  Cl   0.445563
    20  Cl   0.406085
    21  Cl   0.489225
    22  Cl   0.522610
 Sum of Mulliken charges =  -0.00000

 Dipole moment (field-independent basis, Debye):
    X=             -0.5294    Y=              1.1013    Z=              1.2022  Tot=              1.7142
 Quadrupole moment (field-independent basis, Debye-Ang):
   XX=           -126.6913   YY=           -116.9315   ZZ=           -120.1305
   XY=             -7.0080   XZ=             -3.9143   YZ=              4.1845

 Normal termination of Gaussian 16 at Wed Mar 16 02:15:26 2022.
