 Gaussian 16, Revision B.01,
 Gaussian 16:  EM64L-G16RevB.01 20-Dec-2017

 --------------------------------
 # opt b3lyp/6-311+g(d,p) scf=xqc
 --------------------------------

 -------------------
 Title Card Required
 -------------------
 Symbolic Z-matrix:
 Charge =  0 Multiplicity = 1

 SCF Done:  E(RB3LYP) =  -2761.45809601     A.U. after   15 cycles
 SCF Done:  E(RB3LYP) =  -2761.49684556     A.U. after   17 cycles
 SCF Done:  E(RB3LYP) =  -2761.50389411     A.U. after   16 cycles
 SCF Done:  E(RB3LYP) =  -2761.50729413     A.U. after   14 cycles
 SCF Done:  E(RB3LYP) =  -2761.50753406     A.U. after   12 cycles
 SCF Done:  E(RB3LYP) =  -2761.50754629     A.U. after   11 cycles
 SCF Done:  E(RB3LYP) =  -2761.50754769     A.U. after   10 cycles
 SCF Done:  E(RB3LYP) =  -2761.50754743     A.U. after   10 cycles
 SCF Done:  E(RB3LYP) =  -2761.41326301     A.U. after   16 cycles
 SCF Done:  E(RB3LYP) =  -2761.48903671     A.U. after   14 cycles
 SCF Done:  E(RB3LYP) =  -2761.51675328     A.U. after   14 cycles
 SCF Done:  E(RB3LYP) =  -2761.51593562     A.U. after   18 cycles
 SCF Done:  E(RB3LYP) =  -2761.51843001     A.U. after   14 cycles
 SCF Done:  E(RB3LYP) =  -2761.51655675     A.U. after   14 cycles
 SCF Done:  E(RB3LYP) =  -2761.51855134     A.U. after   13 cycles
 SCF Done:  E(RB3LYP) =  -2761.51858497     A.U. after   12 cycles
 SCF Done:  E(RB3LYP) =  -2761.51859782     A.U. after   13 cycles
 SCF Done:  E(RB3LYP) =  -2761.51860212     A.U. after   13 cycles
 SCF Done:  E(RB3LYP) =  -2761.51860219     A.U. after   12 cycles
 SCF Done:  E(RB3LYP) =  -2761.51860212     A.U. after   11 cycles
 Optimization completed.
    -- Stationary point found.

                         Standard orientation:
 ---------------------------------------------------------------------
 Center     Atomic      Atomic             Coordinates (Angstroms)
 Number     Number       Type             X           Y           Z
 ---------------------------------------------------------------------
      1          6           0       -0.103069   -0.143627   -0.121083
      2          6           0       -0.821433   -1.287793    0.230605
      3          6           0       -2.212402   -1.277004    0.234187
      4          6           0       -2.924830   -0.123433   -0.117109
      5          6           0       -2.193781    1.019487   -0.473466
      6          6           0       -0.804557    1.011030   -0.474668
      7          6           0        1.384154   -0.188295   -0.163847
      8          6           0        2.016734   -1.133987   -0.984291
      9          6           0        3.399888   -1.230078   -1.075869
     10          6           0        4.182116   -0.359463   -0.324992
     11          6           0        3.601369    0.587982    0.508784
     12          6           0        2.212722    0.663767    0.581314
     13          1           0       -0.303790   -2.192665    0.520706
     14          1           0       -0.276779    1.909516   -0.763369
     15          1           0        1.400674   -1.798170   -1.579239
     16          1           0        3.862728   -1.963113   -1.723289
     17          1           0        4.214313    1.252581    1.101597
     18         17           0        1.533902    1.844836    1.691663
     19         17           0       -3.010089    2.492456   -0.936194
     20         17           0        5.930312   -0.454983   -0.422791
     21         17           0       -4.660381   -0.108938   -0.113617
     22         17           0       -3.047779   -2.740411    0.694245
 ---------------------------------------------------------------------

 The electronic state is 1-A.
 Alpha  occ. eigenvalues -- -101.57558-101.57472-101.57370-101.57359-101.57324
 Alpha  occ. eigenvalues --  -10.27394 -10.27164 -10.27118 -10.26985 -10.26626
 Alpha  occ. eigenvalues --  -10.22863 -10.22775 -10.21721 -10.21617 -10.21515
 Alpha  occ. eigenvalues --  -10.21426 -10.21278  -9.49018  -9.48930  -9.48843
 Alpha  occ. eigenvalues --   -9.48817  -9.48779  -7.25517  -7.25417  -7.25311
 Alpha  occ. eigenvalues --   -7.25304  -7.25247  -7.24501  -7.24418  -7.24410
 Alpha  occ. eigenvalues --   -7.24350  -7.24328  -7.24297  -7.24276  -7.24260
 Alpha  occ. eigenvalues --   -7.24236  -7.24221  -0.94982  -0.93298  -0.89826
 Alpha  occ. eigenvalues --   -0.89692  -0.87758  -0.86076  -0.84507  -0.79144
 Alpha  occ. eigenvalues --   -0.77324  -0.76184  -0.74070  -0.65688  -0.64801
 Alpha  occ. eigenvalues --   -0.63520  -0.61051  -0.55591  -0.53524  -0.52498
 Alpha  occ. eigenvalues --   -0.51330  -0.49628  -0.48180  -0.46486  -0.46385
 Alpha  occ. eigenvalues --   -0.46294  -0.44966  -0.43501  -0.42994  -0.41061
 Alpha  occ. eigenvalues --   -0.40181  -0.39894  -0.38533  -0.38310  -0.36459
 Alpha  occ. eigenvalues --   -0.35066  -0.34821  -0.34180  -0.33983  -0.33684
 Alpha  occ. eigenvalues --   -0.33251  -0.31841  -0.28715  -0.28058  -0.27241
 Alpha  occ. eigenvalues --   -0.26027
 Alpha virt. eigenvalues --   -0.06844  -0.05724  -0.04926  -0.03611  -0.03405
 Alpha virt. eigenvalues --   -0.01893  -0.00848   0.00649   0.01073   0.01456
 Alpha virt. eigenvalues --    0.01731   0.02237   0.02445   0.03323   0.03758

 Mulliken charges:
               1
     1  C    0.675872
     2  C   -0.899090
     3  C   -0.225240
     4  C    0.022686
     5  C   -0.424436
     6  C   -1.434074
     7  C    0.700071
     8  C   -0.801467
     9  C   -0.554687
    10  C    0.927146
    11  C   -1.230140
    12  C    0.013019
    13  H    0.150430
    14  H    0.158690
    15  H    0.144203
    16  H    0.154285
    17  H    0.174208
    18  Cl   0.376842
    19  Cl   0.539993
    20  Cl   0.397173
    21  Cl   0.626801
    22  Cl   0.507716
 Sum of Mulliken charges =  -0.00000

 Dipole moment (field-independent basis, Debye):
    X=              1.6970    Y=             -0.8954    Z=             -0.8582  Tot=              2.1019
 Quadrupole moment (field-independent basis, Debye-Ang):
   XX=           -141.7957   YY=           -130.4046   ZZ=           -132.7981
   XY=             -1.1793   XZ=             -1.0114   YZ=              2.2949

 Normal termination of Gaussian 16 at Sun Apr  3 12:24:29 2022.
