 Gaussian 16, Revision B.01,
 Gaussian 16:  EM64L-G16RevB.01 20-Dec-2017

 --------------------------------
 # opt b3lyp/6-311+g(d,p) scf=xqc
 --------------------------------

 -------------------
 Title Card Required
 -------------------
 Symbolic Z-matrix:
 Charge =  0 Multiplicity = 1

 SCF Done:  E(RB3LYP) =  -2301.84212305     A.U. after   16 cycles
 SCF Done:  E(RB3LYP) =  -2301.88099737     A.U. after   17 cycles
 SCF Done:  E(RB3LYP) =  -2301.88782978     A.U. after   17 cycles
 SCF Done:  E(RB3LYP) =  -2301.89123618     A.U. after   13 cycles
 SCF Done:  E(RB3LYP) =  -2301.89148585     A.U. after   13 cycles
 SCF Done:  E(RB3LYP) =  -2301.89149704     A.U. after   11 cycles
 SCF Done:  E(RB3LYP) =  -2301.89149834     A.U. after   10 cycles
 SCF Done:  E(RB3LYP) =  -2301.89149808     A.U. after   10 cycles
 SCF Done:  E(RB3LYP) =  -2301.89150425     A.U. after   12 cycles
 SCF Done:  E(RB3LYP) =  -2301.85665293     A.U. after   15 cycles
 SCF Done:  E(RB3LYP) =  -2301.90131941     A.U. after   18 cycles
 SCF Done:  E(RB3LYP) =  -2301.90219344     A.U. after   14 cycles
 SCF Done:  E(RB3LYP) =  -2301.90238099     A.U. after   13 cycles
 SCF Done:  E(RB3LYP) =  -2301.90248438     A.U. after   13 cycles
 SCF Done:  E(RB3LYP) =  -2301.90254545     A.U. after   13 cycles
 SCF Done:  E(RB3LYP) =  -2301.90257500     A.U. after   13 cycles
 SCF Done:  E(RB3LYP) =  -2301.90257880     A.U. after   12 cycles
 SCF Done:  E(RB3LYP) =  -2301.90257972     A.U. after   11 cycles
 SCF Done:  E(RB3LYP) =  -2301.90257974     A.U. after   10 cycles
 SCF Done:  E(RB3LYP) =  -2301.90257971     A.U. after   10 cycles
 Optimization completed.
    -- Stationary point found.

                         Standard orientation:
 ---------------------------------------------------------------------
 Center     Atomic      Atomic             Coordinates (Angstroms)
 Number     Number       Type             X           Y           Z
 ---------------------------------------------------------------------
      1          6           0       -0.391357   -0.482901   -0.100320
      2          6           0       -0.986018   -1.548824   -0.785007
      3          6           0       -2.368943   -1.665014   -0.854523
      4          6           0       -3.186323   -0.721894   -0.236272
      5          6           0       -2.602923    0.344178    0.455595
      6          6           0       -1.217176    0.458931    0.518594
      7          6           0        1.090777   -0.393531    0.003931
      8          6           0        1.802260   -1.463452    0.567371
      9          6           0        3.185711   -1.450272    0.697334
     10          6           0        3.888759   -0.337101    0.250186
     11          6           0        3.230228    0.743572   -0.322621
     12          6           0        1.842938    0.704254   -0.440040
     13          1           0       -0.364894   -2.284724   -1.281734
     14          1           0       -2.825842   -2.485322   -1.393149
     15          1           0       -0.788928    1.288015    1.065925
     16          1           0        1.246016   -2.320363    0.929176
     17          1           0        3.708567   -2.285650    1.144041
     18          1           0        3.782805    1.600610   -0.681709
     19         17           0        1.069403    2.076852   -1.219966
     20         17           0       -3.578743    1.549521    1.260693
     21         17           0        5.635669   -0.290205    0.404379
     22         17           0       -4.919583   -0.903240   -0.345572
 ---------------------------------------------------------------------

 The electronic state is 1-A.
 Alpha  occ. eigenvalues -- -101.57074-101.57027-101.56879-101.56792 -10.26615
 Alpha  occ. eigenvalues --  -10.26305 -10.26275 -10.26218 -10.22429 -10.21920
 Alpha  occ. eigenvalues --  -10.21405 -10.21250 -10.20970 -10.20945 -10.20942
 Alpha  occ. eigenvalues --  -10.20605  -9.48528  -9.48500  -9.48336  -9.48250
 Alpha  occ. eigenvalues --   -7.24995  -7.24967  -7.24816  -7.24732  -7.24010
 Alpha  occ. eigenvalues --   -7.23985  -7.23972  -7.23933  -7.23819  -7.23761
 Alpha  occ. eigenvalues --   -7.23732  -7.23675  -0.93484  -0.92701  -0.89333
 Alpha  occ. eigenvalues --   -0.87234  -0.86587  -0.84449  -0.79135  -0.77173
 Alpha  occ. eigenvalues --   -0.76443  -0.73398  -0.65186  -0.64864  -0.63152
 Alpha  occ. eigenvalues --   -0.60550  -0.55435  -0.52269  -0.51922  -0.50388
 Alpha  occ. eigenvalues --   -0.49276  -0.47883  -0.46026  -0.45745  -0.45687
 Alpha  occ. eigenvalues --   -0.43484  -0.42984  -0.42063  -0.40104  -0.39337
 Alpha  occ. eigenvalues --   -0.38992  -0.37983  -0.36054  -0.35434  -0.34100
 Alpha  occ. eigenvalues --   -0.33905  -0.33623  -0.33041  -0.32026  -0.28573
 Alpha  occ. eigenvalues --   -0.27916  -0.27198  -0.25535
 Alpha virt. eigenvalues --   -0.06284  -0.05236  -0.04297  -0.02916  -0.01878
 Alpha virt. eigenvalues --   -0.01619  -0.00569   0.00678   0.01162   0.01772
 Alpha virt. eigenvalues --    0.02243   0.02552   0.03346   0.03818   0.04197

 Mulliken charges:
               1
     1  C    0.811545
     2  C   -0.287912
     3  C   -0.972725
     4  C    0.070323
     5  C    0.056860
     6  C   -1.289109
     7  C    0.684026
     8  C   -0.749597
     9  C   -0.571471
    10  C    0.955248
    11  C   -1.323625
    12  C   -0.063934
    13  H    0.131174
    14  H    0.154709
    15  H    0.157039
    16  H    0.141833
    17  H    0.153458
    18  H    0.173707
    19  Cl   0.387769
    20  Cl   0.517178
    21  Cl   0.389471
    22  Cl   0.474033
 Sum of Mulliken charges =  -0.00000

 Dipole moment (field-independent basis, Debye):
    X=              1.3017    Y=             -2.0640    Z=             -0.0596  Tot=              2.4409
 Quadrupole moment (field-independent basis, Debye-Ang):
   XX=           -132.1060   YY=           -113.8843   ZZ=           -121.1973
   XY=              0.8914   XZ=              2.1173   YZ=              0.9465

 Normal termination of Gaussian 16 at Wed Mar 16 02:28:55 2022.
