 Gaussian 16, Revision B.01,
 Gaussian 16:  EM64L-G16RevB.01 20-Dec-2017

 --------------------------------
 # opt b3lyp/6-311+g(d,p) scf=xqc
 --------------------------------

 -------------------
 Title Card Required
 -------------------
 Symbolic Z-matrix:
 Charge =  0 Multiplicity = 1

 SCF Done:  E(RB3LYP) =  -2761.46091018     A.U. after   17 cycles
 SCF Done:  E(RB3LYP) =  -2761.50070411     A.U. after   17 cycles
 SCF Done:  E(RB3LYP) =  -2761.50752273     A.U. after   16 cycles
 SCF Done:  E(RB3LYP) =  -2761.51084470     A.U. after   15 cycles
 SCF Done:  E(RB3LYP) =  -2761.51104509     A.U. after   13 cycles
 SCF Done:  E(RB3LYP) =  -2761.51105511     A.U. after   12 cycles
 SCF Done:  E(RB3LYP) =  -2761.51105585     A.U. after   10 cycles
 SCF Done:  E(RB3LYP) =  -2761.51117276     A.U. after   14 cycles
 SCF Done:  E(RB3LYP) =  -2761.46365730     A.U. after   16 cycles
 SCF Done:  E(RB3LYP) =  -2761.51733411     A.U. after   16 cycles
 SCF Done:  E(RB3LYP) =  -2761.52231777     A.U. after   13 cycles
 SCF Done:  E(RB3LYP) =  -2761.52235891     A.U. after   13 cycles
 SCF Done:  E(RB3LYP) =  -2761.52237311     A.U. after   11 cycles
 SCF Done:  E(RB3LYP) =  -2761.52247988     A.U. after   13 cycles
 SCF Done:  E(RB3LYP) =  -2761.52249299     A.U. after   13 cycles
 SCF Done:  E(RB3LYP) =  -2761.52250175     A.U. after   12 cycles
 SCF Done:  E(RB3LYP) =  -2761.52251636     A.U. after   13 cycles
 SCF Done:  E(RB3LYP) =  -2761.52251985     A.U. after   12 cycles
 SCF Done:  E(RB3LYP) =  -2761.52252058     A.U. after   12 cycles
 SCF Done:  E(RB3LYP) =  -2761.52252068     A.U. after   11 cycles
 Optimization completed.
    -- Stationary point found.

                         Standard orientation:
 ---------------------------------------------------------------------
 Center     Atomic      Atomic             Coordinates (Angstroms)
 Number     Number       Type             X           Y           Z
 ---------------------------------------------------------------------
      1          6           0        0.972618    0.033290    0.004248
      2          6           0        1.572910    1.161126   -0.565229
      3          6           0        2.951626    1.320785   -0.476217
      4          6           0        3.755743    0.389407    0.170424
      5          6           0        3.137835   -0.723067    0.734045
      6          6           0        1.764068   -0.915631    0.660493
      7          6           0       -0.508122   -0.118589   -0.055490
      8          6           0       -1.313004    0.880359    0.503169
      9          6           0       -2.701876    0.806013    0.485482
     10          6           0       -3.323942   -0.295954   -0.107198
     11          6           0       -2.545836   -1.298959   -0.677287
     12          6           0       -1.158973   -1.209536   -0.650197
     13          1           0        0.975518    1.898193   -1.085597
     14          1           0        4.826347    0.524583    0.233971
     15          1           0        1.316345   -1.788269    1.115820
     16          1           0       -0.843061    1.730835    0.980265
     17          1           0       -3.025523   -2.144943   -1.149738
     18         17           0       -0.253101   -2.490645   -1.436290
     19         17           0        4.126503   -1.909921    1.567002
     20         17           0       -5.059181   -0.450679   -0.160747
     21         17           0       -3.624055    2.094311    1.215392
     22         17           0        3.699957    2.733649   -1.200191
 ---------------------------------------------------------------------

 The electronic state is 1-A.
 Alpha  occ. eigenvalues -- -101.57869-101.57748-101.57629-101.57177-101.57097
 Alpha  occ. eigenvalues --  -10.27537 -10.27245 -10.27219 -10.26561 -10.26518
 Alpha  occ. eigenvalues --  -10.23448 -10.22931 -10.22347 -10.22278 -10.21521
 Alpha  occ. eigenvalues --  -10.21240 -10.21157  -9.49323  -9.49202  -9.49099
 Alpha  occ. eigenvalues --   -9.48632  -9.48552  -7.25811  -7.25689  -7.25572
 Alpha  occ. eigenvalues --   -7.25101  -7.25021  -7.24803  -7.24743  -7.24680
 Alpha  occ. eigenvalues --   -7.24625  -7.24581  -7.24530  -7.24112  -7.24075
 Alpha  occ. eigenvalues --   -7.24032  -7.23994  -0.94945  -0.93047  -0.90837
 Alpha  occ. eigenvalues --   -0.89208  -0.88374  -0.86124  -0.84123  -0.79954
 Alpha  occ. eigenvalues --   -0.76823  -0.75925  -0.74572  -0.66948  -0.65150
 Alpha  occ. eigenvalues --   -0.62687  -0.60734  -0.55367  -0.53828  -0.53273
 Alpha  occ. eigenvalues --   -0.51406  -0.50017  -0.48118  -0.46739  -0.46552
 Alpha  occ. eigenvalues --   -0.46033  -0.44918  -0.43451  -0.43102  -0.41477
 Alpha  occ. eigenvalues --   -0.40175  -0.40040  -0.39423  -0.38105  -0.37033
 Alpha  occ. eigenvalues --   -0.35263  -0.34634  -0.33893  -0.33809  -0.33333
 Alpha  occ. eigenvalues --   -0.33077  -0.32957  -0.29363  -0.27941  -0.27033
 Alpha  occ. eigenvalues --   -0.26378
 Alpha virt. eigenvalues --   -0.07100  -0.06012  -0.04729  -0.03756  -0.02937
 Alpha virt. eigenvalues --   -0.01636  -0.00739  -0.00219   0.00722   0.01446
 Alpha virt. eigenvalues --    0.01606   0.02068   0.02322   0.03275   0.03603

 Mulliken charges:
               1
     1  C    0.712876
     2  C   -1.421811
     3  C    0.857857
     4  C   -0.902085
     5  C    0.673684
     6  C   -1.533628
     7  C    0.482347
     8  C   -1.006087
     9  C    0.154920
    10  C   -0.008331
    11  C   -0.955591
    12  C   -0.149087
    13  H    0.152900
    14  H    0.173277
    15  H    0.155764
    16  H    0.159409
    17  H    0.175566
    18  Cl   0.425992
    19  Cl   0.418434
    20  Cl   0.498110
    21  Cl   0.540387
    22  Cl   0.395099
 Sum of Mulliken charges =  -0.00000

 Dipole moment (field-independent basis, Debye):
    X=             -0.1410    Y=             -0.0822    Z=              0.0140  Tot=              0.1639
 Quadrupole moment (field-independent basis, Debye-Ang):
   XX=           -138.3656   YY=           -133.3202   ZZ=           -134.8164
   XY=              2.8303   XZ=              1.7159   YZ=              0.7273

 Normal termination of Gaussian 16 at Sun Apr  3 12:19:00 2022.
