 Gaussian 16, Revision B.01,
 Gaussian 16:  EM64L-G16RevB.01 20-Dec-2017

 --------------------------------
 # opt b3lyp/6-311+g(d,p) scf=xqc
 --------------------------------

 -------------------
 Title Card Required
 -------------------
 Symbolic Z-matrix:
 Charge =  0 Multiplicity = 1

 SCF Done:  E(RB3LYP) =  -1842.22450207     A.U. after   17 cycles
 SCF Done:  E(RB3LYP) =  -1842.26330911     A.U. after   16 cycles
 SCF Done:  E(RB3LYP) =  -1842.26978680     A.U. after   16 cycles
 SCF Done:  E(RB3LYP) =  -1842.27320242     A.U. after   14 cycles
 SCF Done:  E(RB3LYP) =  -1842.27344533     A.U. after   13 cycles
 SCF Done:  E(RB3LYP) =  -1842.27345694     A.U. after   11 cycles
 SCF Done:  E(RB3LYP) =  -1842.27345813     A.U. after   10 cycles
 SCF Done:  E(RB3LYP) =  -1842.27368469     A.U. after   15 cycles
 SCF Done:  E(RB3LYP) =  -1842.18784970     A.U. after   18 cycles
 SCF Done:  E(RB3LYP) =  -1842.22330858     A.U. after   16 cycles
 SCF Done:  E(RB3LYP) =  -1842.28073430     A.U. after   15 cycles
 SCF Done:  E(RB3LYP) =  -1842.28465629     A.U. after   12 cycles
 SCF Done:  E(RB3LYP) =  -1842.28513214     A.U. after   14 cycles
 SCF Done:  E(RB3LYP) =  -1842.28517195     A.U. after   12 cycles
 SCF Done:  E(RB3LYP) =  -1842.28517881     A.U. after   12 cycles
 SCF Done:  E(RB3LYP) =  -1842.28518815     A.U. after   12 cycles
 SCF Done:  E(RB3LYP) =  -1842.28519024     A.U. after   12 cycles
 SCF Done:  E(RB3LYP) =  -1842.28519047     A.U. after   11 cycles
 SCF Done:  E(RB3LYP) =  -1842.28519070     A.U. after   12 cycles
 SCF Done:  E(RB3LYP) =  -1842.28519072     A.U. after   10 cycles
 Optimization completed.
    -- Stationary point found.

                         Standard orientation:
 ---------------------------------------------------------------------
 Center     Atomic      Atomic             Coordinates (Angstroms)
 Number     Number       Type             X           Y           Z
 ---------------------------------------------------------------------
      1          6           0        0.041441   -0.210542    0.198587
      2          6           0       -0.733538   -1.315263   -0.170785
      3          6           0       -2.117230   -1.192166   -0.233190
      4          6           0       -2.760899    0.002630    0.066614
      5          6           0       -1.972105    1.088248    0.435751
      6          6           0       -0.587723    1.001239    0.505394
      7          6           0        1.520342   -0.355572    0.309463
      8          6           0        2.047388   -1.309532    1.193718
      9          6           0        3.417966   -1.488683    1.344595
     10          6           0        4.302353   -0.709497    0.602482
     11          6           0        3.810199    0.238549   -0.288743
     12          6           0        2.435045    0.408986   -0.429385
     13          1           0       -0.261901   -2.256327   -0.421301
     14          1           0       -3.837350    0.086322    0.015057
     15          1           0       -0.006641    1.863559    0.801999
     16          1           0        1.357114   -1.904227    1.781055
     17          1           0        3.792086   -2.229266    2.041543
     18          1           0        5.373073   -0.837556    0.710420
     19          1           0        4.483672    0.842773   -0.882940
     20         17           0        1.879691    1.590210   -1.611705
     21         17           0       -2.757451    2.608780    0.831538
     22         17           0       -3.082209   -2.582265   -0.705294
 ---------------------------------------------------------------------

 The electronic state is 1-A.
 Alpha  occ. eigenvalues -- -101.56581-101.56468-101.56278 -10.25830 -10.25777
 Alpha  occ. eigenvalues --  -10.25550 -10.21960 -10.21783 -10.20786 -10.20398
 Alpha  occ. eigenvalues --  -10.20308 -10.20210 -10.20173 -10.20047 -10.19754
 Alpha  occ. eigenvalues --   -9.48036  -9.47925  -9.47753  -7.24502  -7.24391
 Alpha  occ. eigenvalues --   -7.24213  -7.23517  -7.23482  -7.23405  -7.23369
 Alpha  occ. eigenvalues --   -7.23241  -7.23191  -0.92549  -0.90969  -0.88527
 Alpha  occ. eigenvalues --   -0.85548  -0.84586  -0.79630  -0.76069  -0.75145
 Alpha  occ. eigenvalues --   -0.74757  -0.65967  -0.63305  -0.61658  -0.60324
 Alpha  occ. eigenvalues --   -0.54767  -0.52865  -0.51306  -0.49131  -0.48840
 Alpha  occ. eigenvalues --   -0.46860  -0.45319  -0.45254  -0.44804  -0.42643
 Alpha  occ. eigenvalues --   -0.41239  -0.40894  -0.39311  -0.38079  -0.37907
 Alpha  occ. eigenvalues --   -0.37434  -0.34961  -0.33757  -0.33244  -0.32572
 Alpha  occ. eigenvalues --   -0.32383  -0.28966  -0.27123  -0.26335  -0.25948
 Alpha virt. eigenvalues --   -0.05825  -0.04482  -0.03560  -0.02398  -0.01174
 Alpha virt. eigenvalues --   -0.00691   0.00084   0.01114   0.01784   0.01928
 Alpha virt. eigenvalues --    0.02639   0.02865   0.03873   0.04321   0.04914

 Mulliken charges:
               1
     1  C    0.590689
     2  C   -1.140844
     3  C    0.650378
     4  C   -0.704040
     5  C    0.567268
     6  C   -1.583331
     7  C    1.396438
     8  C   -0.740410
     9  C   -0.164397
    10  C   -0.181544
    11  C   -0.818465
    12  C   -0.125050
    13  H    0.148575
    14  H    0.170492
    15  H    0.155504
    16  H    0.137041
    17  H    0.133848
    18  H    0.136494
    19  H    0.151210
    20  Cl   0.420469
    21  Cl   0.410833
    22  Cl   0.388841
 Sum of Mulliken charges =  -0.00000

 Dipole moment (field-independent basis, Debye):
    X=              2.4716    Y=             -1.1942    Z=              1.1789  Tot=              2.9874
 Quadrupole moment (field-independent basis, Debye-Ang):
   XX=            -98.7195   YY=           -109.4854   ZZ=           -109.8634
   XY=             -3.1890   XZ=              2.7920   YZ=             -2.7760

 1\1\GINC-DAMODAR\FOpt\RB3LYP\6-311+G(d,p)\C12H7Cl3\PKC\15-Mar-2022\0\\
 # opt b3lyp/6-311+g(d,p) scf=xqc\\Title Card Required\\0,1\C,-0.316925
 8859,-0.0379818034,0.0371237559\C,1.0748615651,-0.0643343624,0.1773787
 45\C,1.7913314044,1.1265652606,0.1317782248\C,1.1638262352,2.352603436
 ,-0.0547676956\C,-0.2207312189,2.3565468402,-0.1962173039\C,-0.9675536
 444,1.1863781356,-0.1526511942\C,-1.0792949614,-1.3183167215,0.0404168
 187\C,-0.7722447025,-2.2970328907,-0.9174754118\C,-1.4511071137,-3.509
 4378779,-0.968128429\C,-2.4628033453,-3.7736776187,-0.047991811\C,-2.7

 Normal termination of Gaussian 16 at Tue Mar 15 05:08:54 2022.
