 Gaussian 16, Revision B.01,
 Gaussian 16:  EM64L-G16RevB.01 20-Dec-2017

 --------------------------------
 # opt b3lyp/6-311+g(d,p) scf=xqc
 --------------------------------

 -------------------
 Title Card Required
 -------------------
 Symbolic Z-matrix:
 Charge =  0 Multiplicity = 1

 SCF Done:  E(RB3LYP) =  -2301.83801591     A.U. after   16 cycles
 SCF Done:  E(RB3LYP) =  -2301.87599653     A.U. after   16 cycles
 SCF Done:  E(RB3LYP) =  -2301.88284221     A.U. after   17 cycles
 SCF Done:  E(RB3LYP) =  -2301.88623502     A.U. after   14 cycles
 SCF Done:  E(RB3LYP) =  -2301.88648321     A.U. after   12 cycles
 SCF Done:  E(RB3LYP) =  -2301.88649571     A.U. after   11 cycles
 SCF Done:  E(RB3LYP) =  -2301.88649710     A.U. after   10 cycles
 SCF Done:  E(RB3LYP) =  -2301.88649681     A.U. after   10 cycles
 SCF Done:  E(RB3LYP) =  -2301.82574287     A.U. after   17 cycles
 SCF Done:  E(RB3LYP) =  -2301.87264023     A.U. after   14 cycles
 SCF Done:  E(RB3LYP) =  -2301.89218157     A.U. after   16 cycles
 SCF Done:  E(RB3LYP) =  -2301.89411063     A.U. after   18 cycles
 SCF Done:  E(RB3LYP) =  -2301.89692704     A.U. after   13 cycles
 SCF Done:  E(RB3LYP) =  -2301.89760554     A.U. after   14 cycles
 SCF Done:  E(RB3LYP) =  -2301.89755471     A.U. after   16 cycles
 SCF Done:  E(RB3LYP) =  -2301.89750310     A.U. after   15 cycles
 SCF Done:  E(RB3LYP) =  -2301.89770415     A.U. after   14 cycles
 SCF Done:  E(RB3LYP) =  -2301.89773129     A.U. after   13 cycles
 SCF Done:  E(RB3LYP) =  -2301.89773399     A.U. after   12 cycles
 SCF Done:  E(RB3LYP) =  -2301.89773503     A.U. after   11 cycles
 Optimization completed.
    -- Stationary point found.

                         Standard orientation:
 ---------------------------------------------------------------------
 Center     Atomic      Atomic             Coordinates (Angstroms)
 Number     Number       Type             X           Y           Z
 ---------------------------------------------------------------------
      1          6           0       -0.532341    0.223521   -0.193272
      2          6           0        0.239349    1.330480    0.164394
      3          6           0        1.625715    1.236599    0.227760
      4          6           0        2.280885    0.034888   -0.068634
      5          6           0        1.497064   -1.070159   -0.431763
      6          6           0        0.112238   -0.978855   -0.492020
      7          6           0       -2.011068    0.356536   -0.301546
      8          6           0       -2.546720    1.324809   -1.165057
      9          6           0       -3.918684    1.495136   -1.312376
     10          6           0       -4.796148    0.691882   -0.587899
     11          6           0       -4.295608   -0.270968    0.282582
     12          6           0       -2.919156   -0.432101    0.420266
     13          1           0       -0.234297    2.271335    0.411999
     14          1           0       -0.457185   -1.850838   -0.782819
     15          1           0       -1.862262    1.937455   -1.740738
     16          1           0       -4.298986    2.247119   -1.993535
     17          1           0       -5.867975    0.812410   -0.693242
     18          1           0       -4.963790   -0.893855    0.863297
     19         17           0       -2.354231   -1.632325    1.578729
     20         17           0        2.241419   -2.600114   -0.828485
     21         17           0        4.011370   -0.083186    0.009335
     22         17           0        2.529169    2.658317    0.692211
 ---------------------------------------------------------------------

 The electronic state is 1-A.
 Alpha  occ. eigenvalues -- -101.57219-101.57126-101.57006-101.56531 -10.26994
 Alpha  occ. eigenvalues --  -10.26759 -10.26711 -10.25804 -10.22253 -10.22080
 Alpha  occ. eigenvalues --  -10.21056 -10.20967 -10.20440 -10.20428 -10.20276
 Alpha  occ. eigenvalues --  -10.19984  -9.48680  -9.48584  -9.48465  -9.48007
 Alpha  occ. eigenvalues --   -7.25178  -7.25069  -7.24950  -7.24466  -7.24162
 Alpha  occ. eigenvalues --   -7.24081  -7.24064  -7.24005  -7.23945  -7.23885
 Alpha  occ. eigenvalues --   -7.23495  -7.23445  -0.94552  -0.91538  -0.89441
 Alpha  occ. eigenvalues --   -0.87321  -0.85757  -0.85013  -0.79498  -0.76034
 Alpha  occ. eigenvalues --   -0.75716  -0.74161  -0.65618  -0.63971  -0.62601
 Alpha  occ. eigenvalues --   -0.60545  -0.54993  -0.52794  -0.52397  -0.49482
 Alpha  occ. eigenvalues --   -0.49138  -0.47407  -0.45951  -0.45810  -0.45064
 Alpha  occ. eigenvalues --   -0.44497  -0.42057  -0.41681  -0.40363  -0.38481
 Alpha  occ. eigenvalues --   -0.38415  -0.38106  -0.35997  -0.35180  -0.34693
 Alpha  occ. eigenvalues --   -0.34056  -0.33651  -0.32685  -0.31512  -0.28913
 Alpha  occ. eigenvalues --   -0.27136  -0.26836  -0.25777
 Alpha virt. eigenvalues --   -0.06222  -0.05036  -0.04072  -0.03235  -0.02628
 Alpha virt. eigenvalues --   -0.00869  -0.00212   0.00998   0.01717   0.01853
 Alpha virt. eigenvalues --    0.02465   0.02626   0.03374   0.03752   0.04317

 Mulliken charges:
               1
     1  C    0.664065
     2  C   -1.145844
     3  C   -0.228785
     4  C    0.096971
     5  C   -0.343658
     6  C   -1.504116
     7  C    1.442686
     8  C   -0.668085
     9  C   -0.238948
    10  C   -0.148915
    11  C   -0.843738
    12  C   -0.050462
    13  H    0.151934
    14  H    0.159202
    15  H    0.137606
    16  H    0.134581
    17  H    0.137278
    18  H    0.150992
    19  Cl   0.424306
    20  Cl   0.534995
    21  Cl   0.637413
    22  Cl   0.500524
 Sum of Mulliken charges =  -0.00000

 Dipole moment (field-independent basis, Debye):
    X=             -3.4926    Y=              1.2534    Z=             -1.1918  Tot=              3.8974
 Quadrupole moment (field-independent basis, Debye-Ang):
   XX=           -111.9513   YY=           -119.2579   ZZ=           -121.3538
   XY=             -3.5640   XZ=              3.3162   YZ=             -2.3175

 Normal termination of Gaussian 16 at Wed Mar 16 02:57:00 2022.
