 Gaussian 16, Revision B.01,
 Gaussian 16:  EM64L-G16RevB.01 20-Dec-2017

 --------------------------------
 # opt b3lyp/6-311+g(d,p) scf=xqc
 --------------------------------

 -------------------
 Title Card Required
 -------------------
 Symbolic Z-matrix:
 Charge =  0 Multiplicity = 1

 SCF Done:  E(RB3LYP) =  -1382.60315964     A.U. after   16 cycles
 SCF Done:  E(RB3LYP) =  -1382.64213890     A.U. after   16 cycles
 SCF Done:  E(RB3LYP) =  -1382.64842700     A.U. after   16 cycles
 SCF Done:  E(RB3LYP) =  -1382.65189231     A.U. after   14 cycles
 SCF Done:  E(RB3LYP) =  -1382.65212326     A.U. after   12 cycles
 SCF Done:  E(RB3LYP) =  -1382.65212943     A.U. after   11 cycles
 SCF Done:  E(RB3LYP) =  -1382.65213624     A.U. after   10 cycles
 SCF Done:  E(RB3LYP) =  -1382.65213612     A.U. after   10 cycles
 SCF Done:  E(RB3LYP) =  -1382.65490993     A.U. after   16 cycles
 SCF Done:  E(RB3LYP) =  -1382.65989896     A.U. after   16 cycles
 SCF Done:  E(RB3LYP) =  -1382.66265671     A.U. after   17 cycles
 SCF Done:  E(RB3LYP) =  -1382.66344544     A.U. after   15 cycles
 SCF Done:  E(RB3LYP) =  -1382.66373207     A.U. after   15 cycles
 SCF Done:  E(RB3LYP) =  -1382.66384287     A.U. after   14 cycles
 SCF Done:  E(RB3LYP) =  -1382.66388597     A.U. after   13 cycles
 SCF Done:  E(RB3LYP) =  -1382.66389798     A.U. after   13 cycles
 SCF Done:  E(RB3LYP) =  -1382.66390010     A.U. after   12 cycles
 SCF Done:  E(RB3LYP) =  -1382.66390049     A.U. after   11 cycles
 SCF Done:  E(RB3LYP) =  -1382.66390064     A.U. after   11 cycles
 Optimization completed.
    -- Stationary point found.

                         Standard orientation:
 ---------------------------------------------------------------------
 Center     Atomic      Atomic             Coordinates (Angstroms)
 Number     Number       Type             X           Y           Z
 ---------------------------------------------------------------------
      1          6           0        1.229414    0.468681   -0.101549
      2          6           0        1.934692   -0.705985    0.198680
      3          6           0        3.296635   -0.830177   -0.065814
      4          6           0        3.989157    0.229787   -0.642050
      5          6           0        3.318190    1.412253   -0.944914
      6          6           0        1.958704    1.522514   -0.674613
      7          6           0       -0.225641    0.653987    0.160056
      8          6           0       -1.175802   -0.178792   -0.443418
      9          6           0       -2.527894    0.045962   -0.217537
     10          6           0       -2.969804    1.081631    0.600069
     11          6           0       -2.022336    1.908299    1.197826
     12          6           0       -0.662351    1.701463    0.979400
     13          1           0        3.805025   -1.751463    0.188265
     14          1           0        5.048277    0.128569   -0.848435
     15          1           0        3.848428    2.243410   -1.394810
     16          1           0        1.431063    2.436046   -0.923892
     17          1           0       -0.865152   -0.989434   -1.088936
     18          1           0       -4.028855    1.234147    0.762987
     19          1           0       -2.349674    2.716856    1.841324
     20          1           0        0.066859    2.344684    1.457861
     21         17           0        1.133190   -2.068967    0.976076
     22         17           0       -3.710470   -1.002831   -0.992028
 ---------------------------------------------------------------------

 The electronic state is 1-A.
 Alpha  occ. eigenvalues -- -101.55790-101.55605 -10.25026 -10.24570 -10.21181
 Alpha  occ. eigenvalues --  -10.20770 -10.19754 -10.19648 -10.19589 -10.19515
 Alpha  occ. eigenvalues --  -10.19513 -10.19450 -10.19305 -10.19130  -9.47266
 Alpha  occ. eigenvalues --   -9.47062  -7.23724  -7.23520  -7.22755  -7.22705
 Alpha  occ. eigenvalues --   -7.22547  -7.22513  -0.91147  -0.89748  -0.85244
 Alpha  occ. eigenvalues --   -0.84591  -0.79751  -0.75901  -0.74907  -0.73756
 Alpha  occ. eigenvalues --   -0.65001  -0.63181  -0.61257  -0.59625  -0.54311
 Alpha  occ. eigenvalues --   -0.52059  -0.49660  -0.48373  -0.47949  -0.46314
 Alpha  occ. eigenvalues --   -0.44457  -0.44347  -0.44122  -0.41012  -0.40294
 Alpha  occ. eigenvalues --   -0.39634  -0.37851  -0.37207  -0.36814  -0.34464
 Alpha  occ. eigenvalues --   -0.34173  -0.32235  -0.31928  -0.28817  -0.26700
 Alpha  occ. eigenvalues --   -0.26024  -0.25258
 Alpha virt. eigenvalues --   -0.05015  -0.03768  -0.02800  -0.01636  -0.00444
 Alpha virt. eigenvalues --   -0.00117   0.01100   0.01383   0.01993   0.02684
 Alpha virt. eigenvalues --    0.02955   0.04075   0.04474   0.04878   0.05284

 Mulliken charges:
               1
     1  C    1.378006
     2  C   -0.082306
     3  C   -0.803326
     4  C   -0.175036
     5  C   -0.161109
     6  C   -0.728488
     7  C    0.588462
     8  C   -1.086160
     9  C    0.546368
    10  C   -0.592112
    11  C   -0.366125
    12  C   -0.455118
    13  H    0.149550
    14  H    0.134684
    15  H    0.132112
    16  H    0.134181
    17  H    0.151366
    18  H    0.148852
    19  H    0.134177
    20  H    0.125846
    21  Cl   0.426726
    22  Cl   0.399449
 Sum of Mulliken charges =  -0.00000

 Dipole moment (field-independent basis, Debye):
    X=              1.9705    Y=              2.3173    Z=              0.0583  Tot=              3.0424
 Quadrupole moment (field-independent basis, Debye-Ang):
   XX=            -88.1044   YY=            -91.6074   ZZ=            -97.4053
   XY=             -2.3239   XZ=             -5.8147   YZ=              2.0524

 1\1\GINC-DAMODAR\FOpt\RB3LYP\6-311+G(d,p)\C12H8Cl2\PKC\14-Mar-2022\0\\
 # opt b3lyp/6-311+g(d,p) scf=xqc\\Title Card Required\\0,1\C,-3.064455
 352,-2.2229291915,-0.3286189995\C,-1.6730404537,-2.1221530592,-0.18300
 11554\C,-1.0185270348,-0.893640979,-0.234376019\C,-1.7502275224,0.2724
 751099,-0.4342432663\C,-3.1344025641,0.2058674668,-0.5748520614\C,-3.7
 746252789,-1.0272559125,-0.5205918082\C,-3.8136294746,-3.5099948316,-0
 .2821359476\C,-3.551844015,-4.5274219638,-1.20778023\C,-4.2973636577,-
 5.6989244992,-1.1693943297\C,-5.3036347766,-5.8940891988,-0.2282758973

 Normal termination of Gaussian 16 at Mon Mar 14 20:18:19 2022.
