 Gaussian 16, Revision B.01,
 Gaussian 16:  EM64L-G16RevB.01 20-Dec-2017

 --------------------------------
 # opt b3lyp/6-311+g(d,p) scf=xqc
 --------------------------------

 -------------------
 Title Card Required
 -------------------
 Symbolic Z-matrix:
 Charge =  0 Multiplicity = 1

 SCF Done:  E(RB3LYP) =  -1842.22340176     A.U. after   16 cycles
 SCF Done:  E(RB3LYP) =  -1842.26397582     A.U. after   16 cycles
 SCF Done:  E(RB3LYP) =  -1842.27039485     A.U. after   16 cycles
 SCF Done:  E(RB3LYP) =  -1842.27386790     A.U. after   13 cycles
 SCF Done:  E(RB3LYP) =  -1842.27413004     A.U. after   12 cycles
 SCF Done:  E(RB3LYP) =  -1842.27414105     A.U. after   11 cycles
 SCF Done:  E(RB3LYP) =  -1842.27414241     A.U. after   10 cycles
 SCF Done:  E(RB3LYP) =  -1842.27414212     A.U. after    9 cycles
 SCF Done:  E(RB3LYP) =  -1842.27422238     A.U. after   13 cycles
 SCF Done:  E(RB3LYP) =  -1842.25524858     A.U. after   17 cycles
 SCF Done:  E(RB3LYP) =  -1842.28221411     A.U. after   17 cycles
 SCF Done:  E(RB3LYP) =  -1842.28434262     A.U. after   16 cycles
 SCF Done:  E(RB3LYP) =  -1842.28514644     A.U. after   14 cycles
 SCF Done:  E(RB3LYP) =  -1842.28528535     A.U. after   14 cycles
 SCF Done:  E(RB3LYP) =  -1842.28538117     A.U. after   15 cycles
 SCF Done:  E(RB3LYP) =  -1842.28540963     A.U. after   13 cycles
 SCF Done:  E(RB3LYP) =  -1842.28538815     A.U. after   13 cycles
 SCF Done:  E(RB3LYP) =  -1842.28538859     A.U. after   11 cycles
 SCF Done:  E(RB3LYP) =  -1842.28541829     A.U. after   13 cycles
 SCF Done:  E(RB3LYP) =  -1842.28538883     A.U. after   13 cycles
 Optimization completed.
    -- Stationary point found.

                         Standard orientation:
 ---------------------------------------------------------------------
 Center     Atomic      Atomic             Coordinates (Angstroms)
 Number     Number       Type             X           Y           Z
 ---------------------------------------------------------------------
      1          6           0       -0.852041   -0.240324    0.032442
      2          6           0       -1.564618   -1.028915   -0.878708
      3          6           0       -2.957113   -1.048621   -0.880411
      4          6           0       -3.645143   -0.273706    0.046218
      5          6           0       -2.963549    0.515677    0.967573
      6          6           0       -1.572631    0.530017    0.953395
      7          6           0        0.635887   -0.275035    0.041833
      8          6           0        1.291738   -1.503960    0.212423
      9          6           0        2.676961   -1.613311    0.233421
     10          6           0        3.440789   -0.462048    0.078213
     11          6           0        2.839607    0.777023   -0.102005
     12          6           0        1.449105    0.856906   -0.119019
     13          1           0       -1.026670   -1.624172   -1.607821
     14          1           0       -3.499977   -1.654182   -1.594758
     15          1           0       -3.513287    1.108130    1.687635
     16          1           0       -1.044590    1.140226    1.675862
     17          1           0        0.689901   -2.394635    0.350675
     18          1           0        3.155317   -2.573479    0.375273
     19          1           0        3.437870    1.667293   -0.237267
     20         17           0        0.747329    2.444133   -0.405690
     21         17           0        5.192566   -0.567528    0.104806
     22         17           0       -5.402984   -0.292570    0.056069
 ---------------------------------------------------------------------

 The electronic state is 1-A.
 Alpha  occ. eigenvalues -- -101.56806-101.56698-101.56113 -10.26231 -10.25959
 Alpha  occ. eigenvalues --  -10.25051 -10.21978 -10.21077 -10.20998 -10.20847
 Alpha  occ. eigenvalues --  -10.20632 -10.20081 -10.20022 -10.20006 -10.19946
 Alpha  occ. eigenvalues --   -9.48260  -9.48172  -9.47570  -7.24725  -7.24638
 Alpha  occ. eigenvalues --   -7.24027  -7.23741  -7.23705  -7.23659  -7.23606
 Alpha  occ. eigenvalues --   -7.23055  -7.23019  -0.92731  -0.90648  -0.88919
 Alpha  occ. eigenvalues --   -0.85945  -0.84098  -0.78651  -0.77597  -0.76623
 Alpha  occ. eigenvalues --   -0.72895  -0.64951  -0.63708  -0.62986  -0.60262
 Alpha  occ. eigenvalues --   -0.55413  -0.51567  -0.51166  -0.48947  -0.48817
 Alpha  occ. eigenvalues --   -0.47475  -0.45665  -0.45017  -0.45001  -0.42776
 Alpha  occ. eigenvalues --   -0.41352  -0.41045  -0.39510  -0.38050  -0.37936
 Alpha  occ. eigenvalues --   -0.37467  -0.34964  -0.33629  -0.33320  -0.32740
 Alpha  occ. eigenvalues --   -0.32419  -0.28121  -0.28050  -0.27393  -0.25008
 Alpha virt. eigenvalues --   -0.05705  -0.04822  -0.03628  -0.02314  -0.01325
 Alpha virt. eigenvalues --   -0.00792   0.00679   0.00994   0.01313   0.01898
 Alpha virt. eigenvalues --    0.02272   0.03243   0.03949   0.04237   0.04654

 Mulliken charges:
               1
     1  C    1.151417
     2  C   -0.568995
     3  C   -0.725547
     4  C    0.883282
     5  C   -0.729883
     6  C   -1.054727
     7  C    0.344355
     8  C   -0.622151
     9  C   -0.470397
    10  C    0.860662
    11  C   -1.041151
    12  C   -0.198499
    13  H    0.130098
    14  H    0.151018
    15  H    0.151665
    16  H    0.137165
    17  H    0.139019
    18  H    0.151836
    19  H    0.173693
    20  Cl   0.387042
    21  Cl   0.383789
    22  Cl   0.366309
 Sum of Mulliken charges =  -0.00000

 Dipole moment (field-independent basis, Debye):
    X=              0.4607    Y=             -1.2532    Z=              0.2380  Tot=              1.3563
 Quadrupole moment (field-independent basis, Debye-Ang):
   XX=           -120.3456   YY=           -103.4200   ZZ=           -107.0632
   XY=             -0.5907   XZ=             -0.0139   YZ=              3.6473

 1\1\GINC-DAMODAR\FOpt\RB3LYP\6-311+G(d,p)\C12H7Cl3\PKC\15-Mar-2022\0\\
 # opt b3lyp/6-311+g(d,p) scf=xqc\\Title Card Required\\0,1\C,-1.060438
 4308,0.911996418,0.9989413138\C,0.3258995461,0.8914977636,1.1925486853
 \C,1.0751412377,2.0650912325,1.1652079281\C,0.4290449697,3.2742080744,
 0.9347384188\C,-0.9470024257,3.3246906558,0.7333998786\C,-1.6832665565
 ,2.1450018226,0.7695676949\C,-1.8288189449,-0.3626281908,0.9868574997\
 C,-1.4674828019,-1.3721967479,0.0814823502\C,-2.1393116211,-2.58670561
 92,0.0117972057\C,-3.2082615502,-2.8096261893,0.872366737\C,-3.5998392

 Normal termination of Gaussian 16 at Tue Mar 15 04:36:13 2022.
