 Gaussian 16, Revision B.01,
 Gaussian 16:  EM64L-G16RevB.01 20-Dec-2017

 --------------------------------
 # opt b3lyp/6-311+g(d,p) scf=xqc
 --------------------------------

 -------------------
 Title Card Required
 -------------------
 Symbolic Z-matrix:
 Charge =  0 Multiplicity = 1

 SCF Done:  E(RB3LYP) =  -2301.78418253     A.U. after   16 cycles
 SCF Done:  E(RB3LYP) =  -2301.86426601     A.U. after   15 cycles
 SCF Done:  E(RB3LYP) =  -2301.87155782     A.U. after   13 cycles
 SCF Done:  E(RB3LYP) =  -2301.87229005     A.U. after   12 cycles
 SCF Done:  E(RB3LYP) =  -2301.87239247     A.U. after   12 cycles
 SCF Done:  E(RB3LYP) =  -2301.87256239     A.U. after   12 cycles
 SCF Done:  E(RB3LYP) =  -2301.87250730     A.U. after   17 cycles
 SCF Done:  E(RB3LYP) =  -2301.87886906     A.U. after   17 cycles
 SCF Done:  E(RB3LYP) =  -2301.88267235     A.U. after   15 cycles
 SCF Done:  E(RB3LYP) =  -2301.89709159     A.U. after   16 cycles
 SCF Done:  E(RB3LYP) =  -2301.90188683     A.U. after   17 cycles
 SCF Done:  E(RB3LYP) =  -2301.90229254     A.U. after   14 cycles
 SCF Done:  E(RB3LYP) =  -2301.90236299     A.U. after   14 cycles
 SCF Done:  E(RB3LYP) =  -2301.90241123     A.U. after   14 cycles
 SCF Done:  E(RB3LYP) =  -2301.90245722     A.U. after   14 cycles
 SCF Done:  E(RB3LYP) =  -2301.90248064     A.U. after   13 cycles
 SCF Done:  E(RB3LYP) =  -2301.90248385     A.U. after   12 cycles
 SCF Done:  E(RB3LYP) =  -2301.90248408     A.U. after   11 cycles
 Optimization completed.
    -- Stationary point found.

                         Standard orientation:
 ---------------------------------------------------------------------
 Center     Atomic      Atomic             Coordinates (Angstroms)
 Number     Number       Type             X           Y           Z
 ---------------------------------------------------------------------
      1          6           0        0.897013   -0.000004    0.000040
      2          6           0        1.606036    0.000557   -1.203830
      3          6           0        2.998132    0.000549   -1.211407
      4          6           0        3.681528   -0.000016   -0.000013
      5          6           0        2.998176   -0.000560    1.211399
      6          6           0        1.606073   -0.000558    1.203874
      7          6           0       -0.595529   -0.000006    0.000039
      8          6           0       -1.339046    1.190187    0.000096
      9          6           0       -2.730422    1.211181    0.000044
     10          6           0       -3.409598   -0.000003    0.000002
     11          6           0       -2.730424   -1.211182   -0.000033
     12          6           0       -1.339044   -1.190185   -0.000038
     13          1           0        1.069268    0.000979   -2.145482
     14          1           0        3.545167    0.000996   -2.145365
     15          1           0        3.545235   -0.001002    2.145342
     16          1           0        1.069351   -0.000987    2.145552
     17          1           0       -3.265735    2.149963    0.000042
     18          1           0       -3.265729   -2.149969   -0.000068
     19         17           0       -0.507896   -2.735123   -0.000227
     20         17           0       -5.162368    0.000003   -0.000051
     21         17           0        5.439640    0.000011   -0.000049
     22         17           0       -0.507902    2.735124    0.000265
 ---------------------------------------------------------------------

 The electronic state is 1-A.
 Alpha  occ. eigenvalues -- -101.57507-101.57265-101.57265-101.56113 -10.27143
 Alpha  occ. eigenvalues --  -10.27143 -10.26968 -10.25120 -10.23044 -10.21676
 Alpha  occ. eigenvalues --  -10.21675 -10.21192 -10.20137 -10.20135 -10.20057
 Alpha  occ. eigenvalues --  -10.20057  -9.48960  -9.48732  -9.48732  -9.47570
 Alpha  occ. eigenvalues --   -7.25434  -7.25206  -7.25206  -7.24438  -7.24399
 Alpha  occ. eigenvalues --   -7.24217  -7.24217  -7.24157  -7.24157  -7.24029
 Alpha  occ. eigenvalues --   -7.23055  -7.23019  -0.94342  -0.90817  -0.89678
 Alpha  occ. eigenvalues --   -0.89558  -0.85614  -0.83248  -0.78984  -0.77672
 Alpha  occ. eigenvalues --   -0.76484  -0.73365  -0.64202  -0.64035  -0.63526
 Alpha  occ. eigenvalues --   -0.60776  -0.55760  -0.53181  -0.51706  -0.49670
 Alpha  occ. eigenvalues --   -0.48864  -0.47950  -0.46434  -0.45410  -0.45142
 Alpha  occ. eigenvalues --   -0.44060  -0.42249  -0.41802  -0.40530  -0.38671
 Alpha  occ. eigenvalues --   -0.38459  -0.38227  -0.37738  -0.35010  -0.33981
 Alpha  occ. eigenvalues --   -0.33948  -0.32690  -0.32604  -0.32443  -0.28169
 Alpha  occ. eigenvalues --   -0.27404  -0.27333  -0.26161
 Alpha virt. eigenvalues --   -0.05619  -0.05219  -0.03937  -0.03557  -0.03109
 Alpha virt. eigenvalues --   -0.00895   0.00535   0.00877   0.01416   0.01518
 Alpha virt. eigenvalues --    0.01647   0.02092   0.03033   0.03870   0.04358

 Mulliken charges:
               1
     1  C    0.843048
     2  C   -1.051869
     3  C   -0.792178
     4  C    0.919405
     5  C   -0.792235
     6  C   -1.051709
     7  C    0.349316
     8  C   -0.309971
     9  C   -0.493070
    10  C    0.737386
    11  C   -0.493084
    12  C   -0.309968
    13  H    0.128306
    14  H    0.152686
    15  H    0.152686
    16  H    0.128305
    17  H    0.170405
    18  H    0.170404
    19  Cl   0.376116
    20  Cl   0.417266
    21  Cl   0.372642
    22  Cl   0.376112
 Sum of Mulliken charges =  -0.00000

 Dipole moment (field-independent basis, Debye):
    X=             -1.0778    Y=              0.0000    Z=              0.0000  Tot=              1.0778
 Quadrupole moment (field-independent basis, Debye-Ang):
   XX=           -128.2913   YY=           -122.4338   ZZ=           -114.8101
   XY=             -0.0000   XZ=              0.0002   YZ=             -0.0044

 Normal termination of Gaussian 16 at Wed Mar 16 02:01:10 2022.
