 Gaussian 16, Revision B.01,
 Gaussian 16:  EM64L-G16RevB.01 20-Dec-2017

 --------------------------------
 # opt b3lyp/6-311+g(d,p) scf=xqc
 --------------------------------

 -------------------
 Title Card Required
 -------------------
 Symbolic Z-matrix:
 Charge =  0 Multiplicity = 1

 SCF Done:  E(RB3LYP) =  -2301.84002736     A.U. after   16 cycles
 SCF Done:  E(RB3LYP) =  -2301.88084515     A.U. after   18 cycles
 SCF Done:  E(RB3LYP) =  -2301.88738927     A.U. after   16 cycles
 SCF Done:  E(RB3LYP) =  -2301.89077299     A.U. after   14 cycles
 SCF Done:  E(RB3LYP) =  -2301.89100199     A.U. after   13 cycles
 SCF Done:  E(RB3LYP) =  -2301.89101180     A.U. after   12 cycles
 SCF Done:  E(RB3LYP) =  -2301.89101282     A.U. after   10 cycles
 SCF Done:  E(RB3LYP) =  -2301.89115208     A.U. after   14 cycles
 SCF Done:  E(RB3LYP) =  -2301.84003754     A.U. after   16 cycles
 SCF Done:  E(RB3LYP) =  -2301.82556238     A.U. after   17 cycles
 SCF Done:  E(RB3LYP) =  -2301.89876629     A.U. after   16 cycles
 SCF Done:  E(RB3LYP) =  -2301.90107344     A.U. after   12 cycles
 SCF Done:  E(RB3LYP) =  -2301.90164806     A.U. after   15 cycles
 SCF Done:  E(RB3LYP) =  -2301.90181814     A.U. after   13 cycles
 SCF Done:  E(RB3LYP) =  -2301.90190049     A.U. after   13 cycles
 SCF Done:  E(RB3LYP) =  -2301.90195594     A.U. after   13 cycles
 SCF Done:  E(RB3LYP) =  -2301.90198666     A.U. after   13 cycles
 SCF Done:  E(RB3LYP) =  -2301.90199345     A.U. after   12 cycles
 SCF Done:  E(RB3LYP) =  -2301.90199396     A.U. after   11 cycles
 SCF Done:  E(RB3LYP) =  -2301.90199403     A.U. after   11 cycles
 Optimization completed.
    -- Stationary point found.

                         Standard orientation:
 ---------------------------------------------------------------------
 Center     Atomic      Atomic             Coordinates (Angstroms)
 Number     Number       Type             X           Y           Z
 ---------------------------------------------------------------------
      1          6           0       -1.231019   -0.041001    0.001223
      2          6           0       -1.855209   -0.852943   -0.953020
      3          6           0       -3.235099   -1.039404   -0.947173
      4          6           0       -3.998244   -0.410937    0.030361
      5          6           0       -3.403524    0.396800    0.995158
      6          6           0       -2.024859    0.579784    0.973288
      7          6           0        0.249777    0.107283   -0.002264
      8          6           0        1.045340   -1.041806    0.081025
      9          6           0        2.434937   -0.983880    0.080914
     10          6           0        3.071810    0.256584   -0.003744
     11          6           0        2.305858    1.414667   -0.094674
     12          6           0        0.917918    1.337857   -0.094502
     13          1           0       -1.259962   -1.334021   -1.720823
     14          1           0       -3.711193   -1.661336   -1.694250
     15          1           0       -4.010325    0.873186    1.754410
     16          1           0       -1.563914    1.203587    1.729238
     17          1           0        0.565306   -2.008157    0.167155
     18          1           0        2.795877    2.375019   -0.175921
     19         17           0        0.031676    2.844101   -0.269368
     20         17           0        4.809822    0.399174   -0.004705
     21         17           0       -5.739965   -0.641654    0.049983
     22         17           0        3.340708   -2.471403    0.197068
 ---------------------------------------------------------------------

 The electronic state is 1-A.
 Alpha  occ. eigenvalues -- -101.57544-101.57430-101.57219-101.56383 -10.27107
 Alpha  occ. eigenvalues --  -10.26838 -10.26730 -10.25398 -10.22872 -10.21937
 Alpha  occ. eigenvalues --  -10.21768 -10.21454 -10.20465 -10.20384 -10.20364
 Alpha  occ. eigenvalues --  -10.20314  -9.48999  -9.48884  -9.48691  -9.47840
 Alpha  occ. eigenvalues --   -7.25485  -7.25369  -7.25161  -7.24478  -7.24420
 Alpha  occ. eigenvalues --   -7.24363  -7.24308  -7.24299  -7.24174  -7.24122
 Alpha  occ. eigenvalues --   -7.23325  -7.23288  -0.94466  -0.91259  -0.90245
 Alpha  occ. eigenvalues --   -0.88013  -0.86208  -0.84063  -0.79301  -0.77967
 Alpha  occ. eigenvalues --   -0.75736  -0.73168  -0.65953  -0.64353  -0.63349
 Alpha  occ. eigenvalues --   -0.60293  -0.55239  -0.53169  -0.51797  -0.49494
 Alpha  occ. eigenvalues --   -0.49363  -0.47958  -0.46295  -0.45705  -0.45418
 Alpha  occ. eigenvalues --   -0.44407  -0.42378  -0.41761  -0.40773  -0.39254
 Alpha  occ. eigenvalues --   -0.38613  -0.38256  -0.36675  -0.35324  -0.34627
 Alpha  occ. eigenvalues --   -0.33470  -0.33152  -0.32698  -0.32673  -0.28752
 Alpha  occ. eigenvalues --   -0.28410  -0.27045  -0.25389
 Alpha virt. eigenvalues --   -0.06385  -0.05512  -0.04060  -0.03051  -0.02344
 Alpha virt. eigenvalues --   -0.00967  -0.00011   0.00597   0.00901   0.01560
 Alpha virt. eigenvalues --    0.02084   0.02626   0.03566   0.03895   0.04186

 Mulliken charges:
               1
     1  C    1.292137
     2  C   -0.687994
     3  C   -0.677209
     4  C    0.855029
     5  C   -0.766796
     6  C   -0.998857
     7  C    0.143363
     8  C   -1.016262
     9  C    0.087016
    10  C    0.057254
    11  C   -0.941191
    12  C   -0.038688
    13  H    0.134846
    14  H    0.152182
    15  H    0.152791
    16  H    0.138148
    17  H    0.157136
    18  H    0.175456
    19  Cl   0.394286
    20  Cl   0.483178
    21  Cl   0.373029
    22  Cl   0.531147
 Sum of Mulliken charges =  -0.00000

 Dipole moment (field-independent basis, Debye):
    X=             -0.1248    Y=              0.0320    Z=              0.0538  Tot=              0.1396
 Quadrupole moment (field-independent basis, Debye-Ang):
   XX=           -132.2603   YY=           -119.1816   ZZ=           -118.0720
   XY=              2.4698   XZ=             -0.8133   YZ=              4.1767

 Normal termination of Gaussian 16 at Wed Mar 16 03:40:05 2022.
