 Gaussian 16, Revision B.01,
 Gaussian 16:  EM64L-G16RevB.01 20-Dec-2017

 --------------------------------
 # opt b3lyp/6-311+g(d,p) scf=xqc
 --------------------------------

 -------------------
 Title Card Required
 -------------------
 Symbolic Z-matrix:
 Charge =  0 Multiplicity = 1

 SCF Done:  E(RB3LYP) =  -1382.59990039     A.U. after   15 cycles
 SCF Done:  E(RB3LYP) =  -1382.64131518     A.U. after   16 cycles
 SCF Done:  E(RB3LYP) =  -1382.64748462     A.U. after   16 cycles
 SCF Done:  E(RB3LYP) =  -1382.65101344     A.U. after   14 cycles
 SCF Done:  E(RB3LYP) =  -1382.65128253     A.U. after   12 cycles
 SCF Done:  E(RB3LYP) =  -1382.65129474     A.U. after   12 cycles
 SCF Done:  E(RB3LYP) =  -1382.65129609     A.U. after   10 cycles
 SCF Done:  E(RB3LYP) =  -1382.65129578     A.U. after    9 cycles
 SCF Done:  E(RB3LYP) =  -1382.65131144     A.U. after   12 cycles
 SCF Done:  E(RB3LYP) =  -1382.61218328     A.U. after   15 cycles
 SCF Done:  E(RB3LYP) =  -1382.65797623     A.U. after   16 cycles
 SCF Done:  E(RB3LYP) =  -1382.66196706     A.U. after   15 cycles
 SCF Done:  E(RB3LYP) =  -1382.66279667     A.U. after   17 cycles
 SCF Done:  E(RB3LYP) =  -1382.66284852     A.U. after   13 cycles
 SCF Done:  E(RB3LYP) =  -1382.66286152     A.U. after   12 cycles
 SCF Done:  E(RB3LYP) =  -1382.66286706     A.U. after   12 cycles
 SCF Done:  E(RB3LYP) =  -1382.66287170     A.U. after   12 cycles
 SCF Done:  E(RB3LYP) =  -1382.66287357     A.U. after   11 cycles
 SCF Done:  E(RB3LYP) =  -1382.66287451     A.U. after   11 cycles
 SCF Done:  E(RB3LYP) =  -1382.66287466     A.U. after   10 cycles
 Optimization completed.
    -- Stationary point found.

                         Standard orientation:
 ---------------------------------------------------------------------
 Center     Atomic      Atomic             Coordinates (Angstroms)
 Number     Number       Type             X           Y           Z
 ---------------------------------------------------------------------
      1          6           0       -0.115136   -0.320481   -0.050828
      2          6           0        0.649958    0.843202    0.117819
      3          6           0        2.042882    0.821428    0.109969
      4          6           0        2.695895   -0.391069   -0.069374
      5          6           0        1.981612   -1.572543   -0.232106
      6          6           0        0.592791   -1.520397   -0.219571
      7          6           0       -1.604032   -0.348303   -0.051793
      8          6           0       -2.346471    0.383779   -0.987033
      9          6           0       -3.736226    0.306185   -1.004247
     10          6           0       -4.407014   -0.499441   -0.084829
     11          6           0       -3.678276   -1.231687    0.849747
     12          6           0       -2.286805   -1.159155    0.863597
     13          1           0        2.602715    1.735476    0.251070
     14          1           0        2.500261   -2.511794   -0.372659
     15          1           0        0.028620   -2.434685   -0.362248
     16          1           0       -1.833482    1.007710   -1.709120
     17          1           0       -4.295856    0.874092   -1.738980
     18          1           0       -5.489582   -0.555681   -0.097592
     19          1           0       -4.191178   -1.857405    1.571532
     20          1           0       -1.724376   -1.723054    1.599613
     21         17           0       -0.118257    2.400051    0.403124
     22         17           0        4.451658   -0.423802   -0.084872
 ---------------------------------------------------------------------

 The electronic state is 1-A.
 Alpha  occ. eigenvalues -- -101.56424-101.56187 -10.25710 -10.25495 -10.21376
 Alpha  occ. eigenvalues --  -10.20612 -10.20317 -10.20165 -10.20067 -10.18751
 Alpha  occ. eigenvalues --  -10.18652 -10.18616 -10.18564 -10.18516  -9.47878
 Alpha  occ. eigenvalues --   -9.47662  -7.24342  -7.24127  -7.23360  -7.23325
 Alpha  occ. eigenvalues --   -7.23149  -7.23095  -0.92182  -0.88665  -0.87042
 Alpha  occ. eigenvalues --   -0.83979  -0.78905  -0.76255  -0.75989  -0.73113
 Alpha  occ. eigenvalues --   -0.64267  -0.63234  -0.61620  -0.59658  -0.54678
 Alpha  occ. eigenvalues --   -0.51352  -0.50691  -0.48331  -0.46762  -0.46537
 Alpha  occ. eigenvalues --   -0.45174  -0.44163  -0.43545  -0.42148  -0.40238
 Alpha  occ. eigenvalues --   -0.39362  -0.37862  -0.37144  -0.36144  -0.35902
 Alpha  occ. eigenvalues --   -0.33279  -0.32990  -0.32307  -0.28024  -0.27109
 Alpha  occ. eigenvalues --   -0.26727  -0.24850
 Alpha virt. eigenvalues --   -0.04978  -0.04276  -0.02443  -0.01514  -0.00842
 Alpha virt. eigenvalues --   -0.00323   0.00864   0.01642   0.02051   0.02493
 Alpha virt. eigenvalues --    0.03170   0.04044   0.04354   0.04764   0.05312

 Mulliken charges:
               1
     1  C    0.761569
     2  C   -0.457205
     3  C   -0.851755
     4  C    0.757614
     5  C   -0.380325
     6  C   -0.858254
     7  C    1.191831
     8  C   -0.886442
     9  C   -0.270001
    10  C   -0.190075
    11  C   -0.147548
    12  C   -0.547421
    13  H    0.169729
    14  H    0.149757
    15  H    0.140797
    16  H    0.128939
    17  H    0.128654
    18  H    0.128426
    19  H    0.127659
    20  H    0.123152
    21  Cl   0.393845
    22  Cl   0.387053
 Sum of Mulliken charges =  -0.00000

 Dipole moment (field-independent basis, Debye):
    X=             -1.4993    Y=             -1.3538    Z=             -0.2650  Tot=              2.0374
 Quadrupole moment (field-independent basis, Debye-Ang):
   XX=            -93.1742   YY=            -92.3567   ZZ=            -96.0220
   XY=              1.1001   XZ=              0.5066   YZ=             -3.1582

 1\1\GINC-DAMODAR\FOpt\RB3LYP\6-311+G(d,p)\C12H8Cl2\PKC\14-Mar-2022\0\\
 # opt b3lyp/6-311+g(d,p) scf=xqc\\Title Card Required\\0,1\C,-1.232703
 7814,-2.4125425438,-0.1375435399\C,-0.1600954147,-2.1369358118,-0.9986
 590053\C,0.5296410488,-0.9271996192,-0.9589744401\C,0.1428506873,0.038
 0155666,-0.0383806585\C,-0.9193782228,-0.1849693565,0.8302449744\C,-1.
 5892471565,-1.4011336195,0.7676413982\C,-1.999110906,-3.6893352163,-0.
 1401736384\C,-1.3709344546,-4.9174345229,0.102725715\C,-2.1120133426,-
 6.0950112559,0.145755834\C,-3.4911119546,-6.0658544481,-0.0581014447\C

 Normal termination of Gaussian 16 at Mon Mar 14 20:34:16 2022.
