 Gaussian 16, Revision B.01,
 Gaussian 16:  EM64L-G16RevB.01 20-Dec-2017

 --------------------------------
 # opt b3lyp/6-311+g(d,p) scf=xqc
 --------------------------------

 -------------------
 Title Card Required
 -------------------
 Symbolic Z-matrix:
 Charge =  0 Multiplicity = 1

 SCF Done:  E(RB3LYP) =  -1842.22441659     A.U. after   15 cycles
 SCF Done:  E(RB3LYP) =  -1842.26448447     A.U. after   16 cycles
 SCF Done:  E(RB3LYP) =  -1842.27060670     A.U. after   15 cycles
 SCF Done:  E(RB3LYP) =  -1842.27392816     A.U. after   13 cycles
 SCF Done:  E(RB3LYP) =  -1842.27417269     A.U. after   13 cycles
 SCF Done:  E(RB3LYP) =  -1842.27418271     A.U. after   11 cycles
 SCF Done:  E(RB3LYP) =  -1842.27418406     A.U. after   10 cycles
 SCF Done:  E(RB3LYP) =  -1842.27432962     A.U. after   13 cycles
 SCF Done:  E(RB3LYP) =  -1842.23626404     A.U. after   16 cycles
 SCF Done:  E(RB3LYP) =  -1842.28067478     A.U. after   17 cycles
 SCF Done:  E(RB3LYP) =  -1842.28317194     A.U. after   17 cycles
 SCF Done:  E(RB3LYP) =  -1842.28525450     A.U. after   15 cycles
 SCF Done:  E(RB3LYP) =  -1842.28541294     A.U. after   14 cycles
 SCF Done:  E(RB3LYP) =  -1842.28549038     A.U. after   15 cycles
 SCF Done:  E(RB3LYP) =  -1842.28552111     A.U. after   13 cycles
 SCF Done:  E(RB3LYP) =  -1842.28552862     A.U. after   13 cycles
 SCF Done:  E(RB3LYP) =  -1842.28553477     A.U. after   11 cycles
 SCF Done:  E(RB3LYP) =  -1842.28553770     A.U. after   12 cycles
 SCF Done:  E(RB3LYP) =  -1842.28553833     A.U. after   12 cycles
 SCF Done:  E(RB3LYP) =  -1842.28553841     A.U. after   10 cycles
 Optimization completed.
    -- Stationary point found.

                         Standard orientation:
 ---------------------------------------------------------------------
 Center     Atomic      Atomic             Coordinates (Angstroms)
 Number     Number       Type             X           Y           Z
 ---------------------------------------------------------------------
      1          6           0       -0.838185    0.185357    0.003690
      2          6           0       -1.674900   -0.937961   -0.081439
      3          6           0       -3.056449   -0.801872   -0.079283
      4          6           0       -3.653426    0.450787    0.005895
      5          6           0       -2.840330    1.574744    0.096611
      6          6           0       -1.454078    1.442764    0.096273
      7          6           0        0.636456   -0.020658   -0.000296
      8          6           0        1.229850   -0.851399    0.957295
      9          6           0        2.601388   -1.092425    0.950658
     10          6           0        3.386962   -0.500298   -0.031618
     11          6           0        2.823192    0.324871   -1.000088
     12          6           0        1.452828    0.562505   -0.976894
     13          1           0       -1.231054   -1.921357   -0.167910
     14          1           0       -4.731048    0.549356    0.005347
     15          1           0       -3.282316    2.559430    0.177576
     16          1           0        0.617024   -1.304851    1.728054
     17          1           0        3.053792   -1.728658    1.700449
     18          1           0        3.447144    0.772719   -1.762834
     19          1           0        1.015417    1.200535   -1.734964
     20         17           0       -0.500315    2.910644    0.271170
     21         17           0        5.118810   -0.800270   -0.052674
     22         17           0       -4.063720   -2.236589   -0.194409
 ---------------------------------------------------------------------

 The electronic state is 1-A.
 Alpha  occ. eigenvalues -- -101.56678-101.56571-101.56123 -10.25827 -10.25685
 Alpha  occ. eigenvalues --  -10.25085 -10.22362 -10.21054 -10.20991 -10.20902
 Alpha  occ. eigenvalues --  -10.20889 -10.20117 -10.20046 -10.20043 -10.19987
 Alpha  occ. eigenvalues --   -9.48133  -9.48045  -9.47580  -7.24597  -7.24509
 Alpha  occ. eigenvalues --   -7.24038  -7.23614  -7.23580  -7.23531  -7.23481
 Alpha  occ. eigenvalues --   -7.23065  -7.23029  -0.92607  -0.90625  -0.89026
 Alpha  occ. eigenvalues --   -0.85847  -0.83693  -0.79950  -0.77631  -0.75075
 Alpha  occ. eigenvalues --   -0.73229  -0.65600  -0.64189  -0.62556  -0.59977
 Alpha  occ. eigenvalues --   -0.54646  -0.52111  -0.51443  -0.49008  -0.48887
 Alpha  occ. eigenvalues --   -0.47300  -0.45405  -0.45098  -0.45030  -0.42622
 Alpha  occ. eigenvalues --   -0.41221  -0.41059  -0.39584  -0.38189  -0.38013
 Alpha  occ. eigenvalues --   -0.37744  -0.34927  -0.33108  -0.32928  -0.32759
 Alpha  occ. eigenvalues --   -0.32425  -0.29297  -0.28075  -0.26419  -0.25175
 Alpha virt. eigenvalues --   -0.05854  -0.04711  -0.03601  -0.02355  -0.00763
 Alpha virt. eigenvalues --   -0.00666   0.00528   0.00850   0.01050   0.01838
 Alpha virt. eigenvalues --    0.02448   0.03158   0.04010   0.04415   0.04655

 Mulliken charges:
               1
     1  C    0.581746
     2  C   -1.056817
     3  C    0.925186
     4  C   -0.519522
     5  C   -1.118268
     6  C    0.118301
     7  C    1.106988
     8  C   -0.652977
     9  C   -0.721895
    10  C    0.868439
    11  C   -0.747662
    12  C   -1.001968
    13  H    0.154756
    14  H    0.154500
    15  H    0.156766
    16  H    0.133111
    17  H    0.150848
    18  H    0.151314
    19  H    0.138865
    20  Cl   0.412706
    21  Cl   0.376914
    22  Cl   0.388669
 Sum of Mulliken charges =  -0.00000

 Dipole moment (field-independent basis, Debye):
    X=             -1.2902    Y=              0.3583    Z=             -0.0427  Tot=              1.3397
 Quadrupole moment (field-independent basis, Debye-Ang):
   XX=           -111.9731   YY=           -108.8048   ZZ=           -106.5380
   XY=             -4.5480   XZ=             -1.0536   YZ=             -4.2336

 1\1\GINC-DAMODAR\FOpt\RB3LYP\6-311+G(d,p)\C12H7Cl3\PKC\15-Mar-2022\0\\
 # opt b3lyp/6-311+g(d,p) scf=xqc\\Title Card Required\\0,1\C,-1.468613
 4197,-0.7651258853,-0.0015131965\C,-0.0693010405,-0.7982283096,0.09854
 31292\C,0.6744733894,0.3739120756,0.1079039104\C,0.0563452577,1.616068
 4781,0.0198287584\C,-1.3288628904,1.6681873928,-0.0856060876\C,-2.0787
 517058,0.49487827,-0.096853604\C,-2.2146640705,-2.0536797871,-0.009419
 4582\C,-1.9154892224,-3.0299694322,-0.9668002324\C,-2.5704842334,-4.25
 88792624,-0.9708982832\C,-3.5313241421,-4.515920353,0.0003501679\C,-3.

 Normal termination of Gaussian 16 at Tue Mar 15 04:32:19 2022.
