 Gaussian 16, Revision B.01,
 Gaussian 16:  EM64L-G16RevB.01 20-Dec-2017

 --------------------------------
 # opt b3lyp/6-311+g(d,p) scf=xqc
 --------------------------------

 -------------------
 Title Card Required
 -------------------
 Symbolic Z-matrix:
 Charge =  0 Multiplicity = 1

 SCF Done:  E(RB3LYP) =  -1382.60287347     A.U. after   15 cycles
 SCF Done:  E(RB3LYP) =  -1382.64270644     A.U. after   16 cycles
 SCF Done:  E(RB3LYP) =  -1382.64894944     A.U. after   16 cycles
 SCF Done:  E(RB3LYP) =  -1382.65238892     A.U. after   13 cycles
 SCF Done:  E(RB3LYP) =  -1382.65266326     A.U. after   12 cycles
 SCF Done:  E(RB3LYP) =  -1382.65267439     A.U. after   11 cycles
 SCF Done:  E(RB3LYP) =  -1382.65267665     A.U. after   10 cycles
 SCF Done:  E(RB3LYP) =  -1382.62065817     A.U. after   16 cycles
 SCF Done:  E(RB3LYP) =  -1382.65457262     A.U. after   15 cycles
 SCF Done:  E(RB3LYP) =  -1382.62365063     A.U. after   15 cycles
 SCF Done:  E(RB3LYP) =  -1382.66160431     A.U. after   17 cycles
 SCF Done:  E(RB3LYP) =  -1382.66308971     A.U. after   17 cycles
 SCF Done:  E(RB3LYP) =  -1382.66382989     A.U. after   14 cycles
 SCF Done:  E(RB3LYP) =  -1382.66408290     A.U. after   16 cycles
 SCF Done:  E(RB3LYP) =  -1382.66410433     A.U. after   13 cycles
 SCF Done:  E(RB3LYP) =  -1382.66410579     A.U. after   11 cycles
 SCF Done:  E(RB3LYP) =  -1382.66410595     A.U. after   10 cycles
 Optimization completed.
    -- Stationary point found.

                         Standard orientation:
 ---------------------------------------------------------------------
 Center     Atomic      Atomic             Coordinates (Angstroms)
 Number     Number       Type             X           Y           Z
 ---------------------------------------------------------------------
      1          6           0        1.342073   -0.454143   -0.076512
      2          6           0        2.235545    0.615178    0.087253
      3          6           0        3.615548    0.430234    0.051049
      4          6           0        4.138273   -0.843108   -0.150557
      5          6           0        3.277870   -1.926951   -0.308605
      6          6           0        1.902394   -1.727074   -0.270327
      7          6           0       -0.139733   -0.311138   -0.048619
      8          6           0       -0.812791    0.518152   -0.954205
      9          6           0       -2.201209    0.605364   -0.952576
     10          6           0       -2.928179   -0.140962   -0.030197
     11          6           0       -2.288518   -0.972506    0.881609
     12          6           0       -0.898226   -1.054218    0.863553
     13          1           0        4.269323    1.281798    0.189588
     14          1           0        5.212576   -0.982888   -0.179822
     15          1           0        3.674598   -2.922829   -0.467461
     16          1           0        1.231569   -2.566960   -0.410760
     17          1           0       -0.249103    1.095660   -1.676631
     18          1           0       -2.714248    1.243238   -1.660860
     19          1           0       -2.866306   -1.543793    1.596832
     20          1           0       -0.396841   -1.694712    1.580213
     21         17           0        1.647282    2.247082    0.400970
     22         17           0       -4.683743   -0.031934   -0.019929
 ---------------------------------------------------------------------

 The electronic state is 1-A.
 Alpha  occ. eigenvalues -- -101.55826-101.55747 -10.25012 -10.24608 -10.21157
 Alpha  occ. eigenvalues --  -10.20432 -10.19754 -10.19619 -10.19611 -10.19573
 Alpha  occ. eigenvalues --  -10.19549 -10.19545 -10.19455 -10.19297  -9.47302
 Alpha  occ. eigenvalues --   -9.47204  -7.23759  -7.23660  -7.22792  -7.22742
 Alpha  occ. eigenvalues --   -7.22690  -7.22655  -0.91091  -0.89861  -0.85345
 Alpha  occ. eigenvalues --   -0.84660  -0.78994  -0.77121  -0.75225  -0.72990
 Alpha  occ. eigenvalues --   -0.64241  -0.63599  -0.61810  -0.59715  -0.54678
 Alpha  occ. eigenvalues --   -0.51303  -0.49681  -0.48305  -0.47912  -0.46558
 Alpha  occ. eigenvalues --   -0.44548  -0.44332  -0.44262  -0.41028  -0.40369
 Alpha  occ. eigenvalues --   -0.39826  -0.37880  -0.37230  -0.36785  -0.34559
 Alpha  occ. eigenvalues --   -0.34237  -0.32174  -0.32001  -0.28274  -0.27577
 Alpha  occ. eigenvalues --   -0.26403  -0.24703
 Alpha virt. eigenvalues --   -0.04972  -0.03815  -0.02969  -0.01565  -0.00495
 Alpha virt. eigenvalues --   -0.00103   0.01148   0.01356   0.01976   0.02443
 Alpha virt. eigenvalues --    0.03065   0.04134   0.04476   0.04966   0.05088

 Mulliken charges:
               1
     1  C    1.100474
     2  C   -0.062387
     3  C   -0.838751
     4  C   -0.191273
     5  C   -0.141986
     6  C   -0.654476
     7  C    1.167594
     8  C   -1.025370
     9  C   -0.727938
    10  C    0.869971
    11  C   -0.709868
    12  C   -0.670746
    13  H    0.150017
    14  H    0.134487
    15  H    0.131734
    16  H    0.133234
    17  H    0.137764
    18  H    0.150178
    19  H    0.149599
    20  H    0.129892
    21  Cl   0.406363
    22  Cl   0.361490
 Sum of Mulliken charges =  -0.00000

 Dipole moment (field-independent basis, Debye):
    X=              2.2994    Y=             -1.6237    Z=             -0.3262  Tot=              2.8337
 Quadrupole moment (field-independent basis, Debye-Ang):
   XX=            -93.7718   YY=            -92.2801   ZZ=            -95.6710
   XY=             -3.1525   XZ=             -0.8187   YZ=             -3.6016

 1\1\GINC-DAMODAR\FOpt\RB3LYP\6-311+G(d,p)\C12H8Cl2\PKC\14-Mar-2022\0\\
 # opt b3lyp/6-311+g(d,p) scf=xqc\\Title Card Required\\0,1\C,-1.802204
 8781,-0.694956034,0.0765150737\C,-0.725301883,-0.4216363671,-0.7803035
 262\C,-0.0385960816,0.7891692889,-0.7322743442\C,-0.4191930112,1.76500
 30404,0.1832468119\C,-1.4894663645,1.5275698267,1.0423908331\C,-2.1655
 187045,0.313984141,0.9831130612\C,-2.5679082102,-1.9719076045,0.068184
 3329\C,-1.9422996803,-3.2026915053,0.3018477985\C,-2.6752651527,-4.384
 4011657,0.3423136961\C,-4.051314006,-4.3381220918,0.1407720958\C,-4.70

 Normal termination of Gaussian 16 at Mon Mar 14 20:06:26 2022.
