 Gaussian 16, Revision B.01,
 Gaussian 16:  EM64L-G16RevB.01 20-Dec-2017

 --------------------------------
 # opt b3lyp/6-311+g(d,p) scf=xqc
 --------------------------------

 -------------------
 Title Card Required
 -------------------
 Symbolic Z-matrix:
 Charge =  0 Multiplicity = 1

 SCF Done:  E(RB3LYP) =  -1842.16543354     A.U. after   15 cycles
 SCF Done:  E(RB3LYP) =  -1842.24454561     A.U. after   13 cycles
 SCF Done:  E(RB3LYP) =  -1842.25149150     A.U. after   13 cycles
 SCF Done:  E(RB3LYP) =  -1842.25212762     A.U. after   12 cycles
 SCF Done:  E(RB3LYP) =  -1842.25222693     A.U. after   11 cycles
 SCF Done:  E(RB3LYP) =  -1842.25242767     A.U. after   12 cycles
 SCF Done:  E(RB3LYP) =  -1842.25523160     A.U. after   16 cycles
 SCF Done:  E(RB3LYP) =  -1842.25554001     A.U. after   17 cycles
 SCF Done:  E(RB3LYP) =  -1842.26669617     A.U. after   16 cycles
 SCF Done:  E(RB3LYP) =  -1842.27528334     A.U. after   15 cycles
 SCF Done:  E(RB3LYP) =  -1842.28164853     A.U. after   16 cycles
 SCF Done:  E(RB3LYP) =  -1842.28202330     A.U. after   14 cycles
 SCF Done:  E(RB3LYP) =  -1842.28221676     A.U. after   13 cycles
 SCF Done:  E(RB3LYP) =  -1842.28227865     A.U. after   14 cycles
 SCF Done:  E(RB3LYP) =  -1842.28232453     A.U. after   14 cycles
 SCF Done:  E(RB3LYP) =  -1842.28233518     A.U. after   13 cycles
 SCF Done:  E(RB3LYP) =  -1842.28233592     A.U. after   11 cycles
 Optimization completed.
    -- Stationary point found.

                         Standard orientation:
 ---------------------------------------------------------------------
 Center     Atomic      Atomic             Coordinates (Angstroms)
 Number     Number       Type             X           Y           Z
 ---------------------------------------------------------------------
      1          6           0       -0.254280   -0.000066   -0.000116
      2          6           0       -0.963772   -0.000730   -1.203598
      3          6           0       -2.355966   -0.000799   -1.211300
      4          6           0       -3.039167   -0.000098    0.000027
      5          6           0       -2.355847    0.000701    1.211295
      6          6           0       -0.963663    0.000707    1.203451
      7          6           0        1.238541   -0.000009   -0.000136
      8          6           0        1.980461   -1.191632    0.000075
      9          6           0        3.371894   -1.206148    0.000169
     10          6           0        4.063415    0.000150    0.000154
     11          6           0        3.371753    1.206376    0.000012
     12          6           0        1.980329    1.191704   -0.000202
     13          1           0       -0.426927   -0.001175   -2.145205
     14          1           0       -2.902986   -0.001392   -2.145302
     15          1           0       -2.902783    0.001320    2.145348
     16          1           0       -0.426710    0.001207    2.144996
     17          1           0        3.898342   -2.151378    0.000253
     18          1           0        5.146994    0.000213    0.000308
     19          1           0        3.898102    2.151661    0.000113
     20         17           0        1.142251    2.736683   -0.000352
     21         17           0       -4.798134   -0.000043    0.000115
     22         17           0        1.142576   -2.736722    0.000267
 ---------------------------------------------------------------------

 The electronic state is 1-A.
 Alpha  occ. eigenvalues -- -101.56461-101.56461-101.55773 -10.26018 -10.26017
 Alpha  occ. eigenvalues --  -10.24710 -10.22336 -10.20689 -10.20683 -10.20457
 Alpha  occ. eigenvalues --  -10.20449 -10.19692 -10.19689 -10.19635 -10.19634
 Alpha  occ. eigenvalues --   -9.47930  -9.47929  -9.47230  -7.24395  -7.24395
 Alpha  occ. eigenvalues --   -7.23687  -7.23418  -7.23418  -7.23361  -7.23361
 Alpha  occ. eigenvalues --   -7.22715  -7.22681  -0.92791  -0.90171  -0.88603
 Alpha  occ. eigenvalues --   -0.85306  -0.84041  -0.79088  -0.77239  -0.75054
 Alpha  occ. eigenvalues --   -0.73484  -0.64615  -0.63598  -0.62067  -0.60342
 Alpha  occ. eigenvalues --   -0.55093  -0.51686  -0.51035  -0.49193  -0.48338
 Alpha  occ. eigenvalues --   -0.47145  -0.45229  -0.44756  -0.44679  -0.42344
 Alpha  occ. eigenvalues --   -0.40864  -0.40847  -0.39273  -0.37631  -0.37591
 Alpha  occ. eigenvalues --   -0.37515  -0.34468  -0.33609  -0.33080  -0.32193
 Alpha  occ. eigenvalues --   -0.32112  -0.27718  -0.27571  -0.26392  -0.25719
 Alpha virt. eigenvalues --   -0.04613  -0.04357  -0.03485  -0.03033  -0.01594
 Alpha virt. eigenvalues --   -0.00570   0.00829   0.01453   0.01852   0.01965
 Alpha virt. eigenvalues --    0.02275   0.02956   0.04144   0.04317   0.05347

 Mulliken charges:
               1
     1  C    0.655066
     2  C   -0.942824
     3  C   -0.840182
     4  C    0.959654
     5  C   -0.839893
     6  C   -0.943562
     7  C    0.323888
     8  C   -0.009363
     9  C   -0.093862
    10  C   -0.306116
    11  C   -0.093822
    12  C   -0.009543
    13  H    0.126538
    14  H    0.151262
    15  H    0.151262
    16  H    0.126540
    17  H    0.150737
    18  H    0.140995
    19  H    0.150736
    20  Cl   0.386932
    21  Cl   0.368642
    22  Cl   0.386913
 Sum of Mulliken charges =  -0.00000

 Dipole moment (field-independent basis, Debye):
    X=              2.9711    Y=              0.0002    Z=              0.0002  Tot=              2.9711
 Quadrupole moment (field-independent basis, Debye-Ang):
   XX=           -101.6101   YY=           -112.4711   ZZ=           -103.3830
   XY=              0.0005   XZ=              0.0019   YZ=              0.0059

 1\1\GINC-DAMODAR\FOpt\RB3LYP\6-311+G(d,p)\C12H7Cl3\PKC\15-Mar-2022\0\\
 # opt b3lyp/6-311+g(d,p) scf=xqc\\Title Card Required\\0,1\C,-0.427253
 0466,-0.1181070738,-0.0026906381\C,0.8360486764,-0.032663241,0.5876613
 718\C,1.5451678438,1.1654225868,0.5856621164\C,0.9795061925,2.28532571
 98,-0.0142703255\C,-0.2764842247,2.2259115679,-0.6084551538\C,-0.97388
 62095,1.0210144147,-0.5988395562\C,-1.1813973072,-1.4064169863,0.00352
 45334\C,-1.0510542806,-2.3473434662,-1.0299547278\C,-1.7478856835,-3.5
 517828282,-1.036890039\C,-2.6087363054,-3.8441365668,0.0151659952\C,-2

 Normal termination of Gaussian 16 at Tue Mar 15 04:17:24 2022.
