 Gaussian 16, Revision B.01,
 Gaussian 16:  EM64L-G16RevB.01 20-Dec-2017

 --------------------------------
 # opt b3lyp/6-311+g(d,p) scf=xqc
 --------------------------------

 -------------------
 Title Card Required
 -------------------
 Symbolic Z-matrix:
 Charge =  0 Multiplicity = 1

 SCF Done:  E(RB3LYP) =  -1382.66043563     A.U. after   14 cycles
 SCF Done:  E(RB3LYP) =  -1382.66440061     A.U. after   12 cycles
 SCF Done:  E(RB3LYP) =  -1382.66466847     A.U. after   12 cycles
 SCF Done:  E(RB3LYP) =  -1382.66468225     A.U. after   11 cycles
 SCF Done:  E(RB3LYP) =  -1382.66468866     A.U. after   10 cycles
 SCF Done:  E(RB3LYP) =  -1382.66468901     A.U. after    9 cycles
 SCF Done:  E(RB3LYP) =  -1382.66468914     A.U. after    9 cycles
 SCF Done:  E(RB3LYP) =  -1382.66602592     A.U. after   15 cycles
 SCF Done:  E(RB3LYP) =  -1382.66775622     A.U. after   16 cycles
 SCF Done:  E(RB3LYP) =  -1382.66805768     A.U. after   15 cycles
 SCF Done:  E(RB3LYP) =  -1382.66807954     A.U. after   13 cycles
 SCF Done:  E(RB3LYP) =  -1382.66808837     A.U. after   11 cycles
 SCF Done:  E(RB3LYP) =  -1382.66808925     A.U. after   11 cycles
 SCF Done:  E(RB3LYP) =  -1382.66808858     A.U. after   10 cycles
 Optimization completed.
    -- Stationary point found.

                         Standard orientation:
 ---------------------------------------------------------------------
 Center     Atomic      Atomic             Coordinates (Angstroms)
 Number     Number       Type             X           Y           Z
 ---------------------------------------------------------------------
      1          6           0       -0.086730    0.737930    0.726517
      2          6           0        0.255327    1.492623   -0.404310
      3          6           0        0.086730    2.871888   -0.392914
      4          6           0       -0.416213    3.536136    0.720804
      5          6           0       -0.755056    2.785500    1.844538
      6          6           0       -0.593527    1.403338    1.851576
      7          6           0        0.086730   -0.737930    0.726517
      8          6           0       -0.255327   -1.492623   -0.404310
      9          6           0       -0.086730   -2.871888   -0.392914
     10          6           0        0.416213   -3.536136    0.720804
     11          6           0        0.755056   -2.785500    1.844538
     12          6           0        0.593527   -1.403338    1.851576
     13          1           0        0.672912    1.011633   -1.279453
     14          1           0       -0.539324    4.611232    0.706708
     15          1           0       -1.157335    3.286344    2.717684
     16          1           0       -0.885747    0.832804    2.724999
     17          1           0       -0.672912   -1.011633   -1.279453
     18          1           0        0.539324   -4.611232    0.706708
     19          1           0        1.157335   -3.286344    2.717684
     20          1           0        0.885747   -0.832804    2.724999
     21         17           0        0.532300    3.799702   -1.820424
     22         17           0       -0.532300   -3.799702   -1.820424
 ---------------------------------------------------------------------

 The electronic state is 1-A.
 Alpha  occ. eigenvalues -- -101.55975-101.55975 -10.24984 -10.24983 -10.21079
 Alpha  occ. eigenvalues --  -10.21050 -10.19891 -10.19890 -10.19855 -10.19854
 Alpha  occ. eigenvalues --  -10.19799 -10.19799 -10.19441 -10.19441  -9.47433
 Alpha  occ. eigenvalues --   -9.47433  -7.23891  -7.23891  -7.22917  -7.22917
 Alpha  occ. eigenvalues --   -7.22883  -7.22883  -0.91062  -0.90190  -0.86273
 Alpha  occ. eigenvalues --   -0.84327  -0.79809  -0.75838  -0.75663  -0.73933
 Alpha  occ. eigenvalues --   -0.65605  -0.63317  -0.61768  -0.59134  -0.54760
 Alpha  occ. eigenvalues --   -0.52306  -0.50148  -0.48909  -0.47551  -0.46268
 Alpha  occ. eigenvalues --   -0.44983  -0.44645  -0.44262  -0.41476  -0.40554
 Alpha  occ. eigenvalues --   -0.39835  -0.38491  -0.37137  -0.37037  -0.35284
 Alpha  occ. eigenvalues --   -0.34026  -0.32426  -0.32235  -0.29654  -0.26836
 Alpha  occ. eigenvalues --   -0.26387  -0.25086
 Alpha virt. eigenvalues --   -0.05923  -0.03675  -0.03513  -0.00944  -0.00716
 Alpha virt. eigenvalues --    0.00101   0.00956   0.01247   0.01527   0.02585
 Alpha virt. eigenvalues --    0.02946   0.04066   0.04722   0.04726   0.05106

 Mulliken charges:
               1
     1  C    0.946799
     2  C   -1.400255
     3  C    0.933138
     4  C   -0.633842
     5  C   -0.327479
     6  C   -0.474023
     7  C    0.946799
     8  C   -1.400255
     9  C    0.933138
    10  C   -0.633842
    11  C   -0.327479
    12  C   -0.474023
    13  H    0.152772
    14  H    0.149965
    15  H    0.135135
    16  H    0.129569
    17  H    0.152772
    18  H    0.149965
    19  H    0.135135
    20  H    0.129569
    21  Cl   0.388220
    22  Cl   0.388220
 Sum of Mulliken charges =  -0.00000

 Dipole moment (field-independent basis, Debye):
    X=             -0.0000    Y=             -0.0000    Z=              2.9048  Tot=              2.9048
 Quadrupole moment (field-independent basis, Debye-Ang):
   XX=            -98.7729   YY=            -95.2652   ZZ=            -90.5575
   XY=             -5.1477   XZ=             -0.0000   YZ=              0.0000

 1\1\GINC-DAMODAR\FOpt\RB3LYP\6-311+G(d,p)\C12H8Cl2\PKC\14-Mar-2022\0\\
 # opt b3lyp/6-311+g(d,p) scf=xqc\\Title Card Required\\0,1\C,-3.463222
 2095,-2.8037817025,-0.1582963533\C,-2.1230556681,-3.1256911764,0.09794
 89343\C,-1.3149250206,-2.2284038228,0.7855002345\C,-1.8010200898,-1.00
 50818737,1.2346543761\C,-3.133230176,-0.6863130872,0.9803909796\C,-3.9
 576164298,-1.5720316817,0.2930749162\C,-4.3374667338,-3.753604452,-0.8
 943547096\C,-3.849345413,-4.44885346,-2.0095677423\C,-4.675899775,-5.3
 358908754,-2.6884631974\C,-5.990431807,-5.5574432637,-2.291645196\C,-6

 Normal termination of Gaussian 16 at Mon Mar 14 19:31:50 2022.
