 Gaussian 16, Revision B.01,
 Gaussian 16:  EM64L-G16RevB.01 20-Dec-2017

 --------------------------------
 # opt b3lyp/6-311+g(d,p) scf=xqc
 --------------------------------

 -------------------
 Title Card Required
 -------------------
 Symbolic Z-matrix:
 Charge =  0 Multiplicity = 1

 SCF Done:  E(RB3LYP) =  -3221.12598769     A.U. after   15 cycles
 SCF Done:  E(RB3LYP) =  -3221.13112792     A.U. after   13 cycles
 SCF Done:  E(RB3LYP) =  -3221.13153211     A.U. after   11 cycles
 SCF Done:  E(RB3LYP) =  -3221.13154548     A.U. after   10 cycles
 Optimization completed.
    -- Stationary point found.

                         Standard orientation:
 ---------------------------------------------------------------------
 Center     Atomic      Atomic             Coordinates (Angstroms)
 Number     Number       Type             X           Y           Z
 ---------------------------------------------------------------------
      1          6           0        0.745426    0.000000   -0.000000
      2          6           0        1.474185    1.196065   -0.000035
      3          6           0        2.863071    1.197273   -0.000035
      4          6           0        3.589908    0.000000    0.000000
      5          6           0        2.863071   -1.197273    0.000035
      6          6           0        1.474185   -1.196065    0.000034
      7          6           0       -0.745426    0.000000   -0.000001
      8          6           0       -1.474185    1.196065    0.000034
      9          6           0       -2.863071    1.197273    0.000035
     10          6           0       -3.589908    0.000000   -0.000000
     11          6           0       -2.863071   -1.197273   -0.000035
     12          6           0       -1.474185   -1.196065   -0.000035
     13          1           0        0.981747    2.156916   -0.000065
     14          1           0        0.981747   -2.156916    0.000064
     15          1           0       -0.981747    2.156916    0.000064
     16          1           0       -0.981747   -2.156916   -0.000065
     17         17           0        5.323681    0.000000    0.000000
     18         17           0       -5.323681    0.000000    0.000000
     19         17           0        3.683356   -2.738370    0.000081
     20         17           0       -3.683356   -2.738370   -0.000081
     21         17           0        3.683356    2.738370   -0.000081
     22         17           0       -3.683356    2.738370    0.000081
 ---------------------------------------------------------------------

 The electronic state is 1-A.
 Alpha  occ. eigenvalues -- -101.58081-101.58081-101.57925-101.57925-101.57925
 Alpha  occ. eigenvalues -- -101.57925 -10.27899 -10.27899 -10.27735 -10.27735
 Alpha  occ. eigenvalues --  -10.27727 -10.27726 -10.23720 -10.23692 -10.22102
 Alpha  occ. eigenvalues --  -10.22102 -10.22101 -10.22100  -9.49540  -9.49539
 Alpha  occ. eigenvalues --   -9.49387  -9.49387  -9.49387  -9.49386  -7.26040
 Alpha  occ. eigenvalues --   -7.26040  -7.25874  -7.25874  -7.25874  -7.25874
 Alpha  occ. eigenvalues --   -7.25023  -7.25023  -7.24938  -7.24938  -7.24865
 Alpha  occ. eigenvalues --   -7.24865  -7.24865  -7.24865  -7.24806  -7.24806
 Alpha  occ. eigenvalues --   -7.24806  -7.24806  -0.95709  -0.95321  -0.90427
 Alpha  occ. eigenvalues --   -0.90380  -0.89366  -0.87851  -0.86765  -0.84740
 Alpha  occ. eigenvalues --   -0.79038  -0.77529  -0.76113  -0.74837  -0.66857
 Alpha  occ. eigenvalues --   -0.65620  -0.63228  -0.61622  -0.56547  -0.55084
 Alpha  occ. eigenvalues --   -0.52631  -0.50990  -0.50831  -0.48208  -0.47619
 Alpha  occ. eigenvalues --   -0.47549  -0.46204  -0.46145  -0.45288  -0.43475
 Alpha  occ. eigenvalues --   -0.42866  -0.41598  -0.39856  -0.39164  -0.39095
 Alpha  occ. eigenvalues --   -0.39032  -0.36410  -0.35611  -0.35573  -0.35419
 Alpha  occ. eigenvalues --   -0.34755  -0.34368  -0.33721  -0.32425  -0.32277
 Alpha  occ. eigenvalues --   -0.29411  -0.28173  -0.27581  -0.25754
 Alpha virt. eigenvalues --   -0.08973  -0.06951  -0.04581  -0.04106  -0.03973
 Alpha virt. eigenvalues --   -0.02055  -0.01096   0.00382   0.00788   0.00878
 Alpha virt. eigenvalues --    0.01297   0.01938   0.02277   0.02823   0.02844

 Mulliken charges:
               1
     1  C    0.002602
     2  C   -0.643716
     3  C   -0.481609
     4  C    0.245553
     5  C   -0.481609
     6  C   -0.643716
     7  C    0.002602
     8  C   -0.643716
     9  C   -0.481609
    10  C    0.245553
    11  C   -0.481609
    12  C   -0.643716
    13  H    0.150132
    14  H    0.150132
    15  H    0.150132
    16  H    0.150132
    17  Cl   0.646611
    18  Cl   0.646611
    19  Cl   0.527810
    20  Cl   0.527810
    21  Cl   0.527810
    22  Cl   0.527810
 Sum of Mulliken charges =  -0.00000

 Dipole moment (field-independent basis, Debye):
    X=              0.0000    Y=              0.0000    Z=             -0.0000  Tot=              0.0000
 Quadrupole moment (field-independent basis, Debye-Ang):
   XX=           -158.9948   YY=           -142.6363   ZZ=           -147.1643
   XY=             -0.0000   XZ=             -0.0000   YZ=             -0.0000

 Normal termination of Gaussian 16 at Thu Mar 24 11:38:41 2022.
