 Gaussian 16, Revision B.01,
 Gaussian 16:  EM64L-G16RevB.01 20-Dec-2017

 --------------------------------
 # opt b3lyp/6-311+g(d,p) scf=xqc
 --------------------------------

 -------------------
 Title Card Required
 -------------------
 Symbolic Z-matrix:
 Charge =  0 Multiplicity = 1

 SCF Done:  E(RB3LYP) =  -1382.65555733     A.U. after   17 cycles
 SCF Done:  E(RB3LYP) =  -1382.65977017     A.U. after   14 cycles
 SCF Done:  E(RB3LYP) =  -1382.66007338     A.U. after   13 cycles
 SCF Done:  E(RB3LYP) =  -1382.66008732     A.U. after   11 cycles
 SCF Done:  E(RB3LYP) =  -1382.66008961     A.U. after   10 cycles
 SCF Done:  E(RB3LYP) =  -1382.66008996     A.U. after    9 cycles
 SCF Done:  E(RB3LYP) =  -1382.66009019     A.U. after   10 cycles
 SCF Done:  E(RB3LYP) =  -1382.66129863     A.U. after   16 cycles
 SCF Done:  E(RB3LYP) =  -1382.65497316     A.U. after   17 cycles
 SCF Done:  E(RB3LYP) =  -1382.66317159     A.U. after   15 cycles
 SCF Done:  E(RB3LYP) =  -1382.66326425     A.U. after   13 cycles
 SCF Done:  E(RB3LYP) =  -1382.66326730     A.U. after   11 cycles
 SCF Done:  E(RB3LYP) =  -1382.66326753     A.U. after   10 cycles
 Optimization completed.
    -- Stationary point found.

                         Standard orientation:
 ---------------------------------------------------------------------
 Center     Atomic      Atomic             Coordinates (Angstroms)
 Number     Number       Type             X           Y           Z
 ---------------------------------------------------------------------
      1          6           0       -0.573281   -0.314999    0.051519
      2          6           0        0.291778    0.770204   -0.127149
      3          6           0        1.673584    0.602525   -0.101371
      4          6           0        2.220969   -0.666843    0.102095
      5          6           0        1.368593   -1.755129    0.279494
      6          6           0       -0.008764   -1.582175    0.254493
      7          6           0       -2.045264   -0.121924    0.026545
      8          6           0       -2.636291    0.989514    0.645014
      9          6           0       -4.016744    1.168517    0.621857
     10          6           0       -4.834466    0.240073   -0.020205
     11          6           0       -4.260111   -0.869081   -0.638844
     12          6           0       -2.879665   -1.048568   -0.615454
     13          1           0       -0.105800    1.759574   -0.312859
     14          1           0        1.796727   -2.735143    0.447884
     15          1           0       -0.650943   -2.438717    0.419963
     16          1           0       -2.012882    1.705103    1.169196
     17          1           0       -4.454524    2.029771    1.113959
     18          1           0       -5.909264    0.379707   -0.038393
     19          1           0       -4.886778   -1.591980   -1.149067
     20          1           0       -2.442503   -1.901814   -1.121651
     21         17           0        2.690944    2.004680   -0.342647
     22         17           0        3.948111   -0.926985    0.142823
 ---------------------------------------------------------------------

 The electronic state is 1-A.
 Alpha  occ. eigenvalues -- -101.56438-101.56420 -10.25767 -10.25619 -10.21016
 Alpha  occ. eigenvalues --  -10.20392 -10.20262 -10.20248 -10.19855 -10.18970
 Alpha  occ. eigenvalues --  -10.18955 -10.18891 -10.18873 -10.18782  -9.47895
 Alpha  occ. eigenvalues --   -9.47879  -7.24373  -7.24357  -7.23378  -7.23361
 Alpha  occ. eigenvalues --   -7.23323  -7.23307  -0.92646  -0.88119  -0.86755
 Alpha  occ. eigenvalues --   -0.85091  -0.78767  -0.76562  -0.75783  -0.73117
 Alpha  occ. eigenvalues --   -0.64628  -0.63772  -0.61545  -0.59400  -0.54739
 Alpha  occ. eigenvalues --   -0.51313  -0.50677  -0.48803  -0.46508  -0.46344
 Alpha  occ. eigenvalues --   -0.45158  -0.44476  -0.43765  -0.42703  -0.40207
 Alpha  occ. eigenvalues --   -0.39232  -0.38409  -0.36397  -0.35981  -0.35585
 Alpha  occ. eigenvalues --   -0.34623  -0.33586  -0.31627  -0.28681  -0.27103
 Alpha  occ. eigenvalues --   -0.26907  -0.24442
 Alpha virt. eigenvalues --   -0.05651  -0.04047  -0.02941  -0.01382  -0.00631
 Alpha virt. eigenvalues --   -0.00331   0.00870   0.01350   0.02437   0.02986
 Alpha virt. eigenvalues --    0.03335   0.04016   0.04498   0.04676   0.05438

 Mulliken charges:
               1
     1  C    1.016974
     2  C   -0.966346
     3  C    0.072331
     4  C    0.107774
     5  C   -0.902056
     6  C   -0.631049
     7  C    1.214337
     8  C   -0.705792
     9  C   -0.162189
    10  C   -0.294458
    11  C   -0.145863
    12  C   -0.637814
    13  H    0.151997
    14  H    0.152213
    15  H    0.134278
    16  H    0.128760
    17  H    0.128879
    18  H    0.129444
    19  H    0.128587
    20  H    0.125821
    21  Cl   0.486309
    22  Cl   0.467862
 Sum of Mulliken charges =  -0.00000

 Dipole moment (field-independent basis, Debye):
    X=             -2.8570    Y=             -0.9478    Z=              0.1730  Tot=              3.0151
 Quadrupole moment (field-independent basis, Debye-Ang):
   XX=            -94.0143   YY=            -89.0706   ZZ=            -98.4740
   XY=             -1.8393   XZ=              0.7849   YZ=              2.4863

 1\1\GINC-DAMODAR\FOpt\RB3LYP\6-311+G(d,p)\C12H8Cl2\PKC\14-Mar-2022\0\\
 # opt b3lyp/6-311+g(d,p) scf=xqc\\Title Card Required\\0,1\C,-1.928646
 8318,-0.8001706364,0.0871797227\C,-0.5298974127,-0.7894977982,0.051107
 0361\C,0.1818986339,0.4069151232,0.0405940194\C,-0.4989363705,1.626723
 4574,0.0698148368\C,-1.8921188906,1.6278069648,0.1075566755\C,-2.59721
 97066,0.4318103952,0.1162738668\C,-2.6760669332,-2.0831203853,0.093253
 634\C,-2.2709156192,-3.15630809,-0.7137355844\C,-2.9735039442,-4.35820
 94551,-0.7079151373\C,-4.0954003591,-4.5117481361,0.1049149944\C,-4.50

 Normal termination of Gaussian 16 at Mon Mar 14 19:30:10 2022.
