 Gaussian 16, Revision B.01,
 Gaussian 16:  EM64L-G16RevB.01 20-Dec-2017

 --------------------------------
 # opt b3lyp/6-311+g(d,p) scf=xqc
 --------------------------------

 -------------------
 Title Card Required
 -------------------
 Symbolic Z-matrix:
 Charge =  0 Multiplicity = 1

 SCF Done:  E(RB3LYP) =  -1382.66045412     A.U. after   16 cycles
 SCF Done:  E(RB3LYP) =  -1382.66465252     A.U. after   14 cycles
 SCF Done:  E(RB3LYP) =  -1382.66493477     A.U. after   12 cycles
 SCF Done:  E(RB3LYP) =  -1382.66494858     A.U. after   12 cycles
 SCF Done:  E(RB3LYP) =  -1382.66495077     A.U. after   11 cycles
 SCF Done:  E(RB3LYP) =  -1382.66495108     A.U. after   10 cycles
 SCF Done:  E(RB3LYP) =  -1382.66495125     A.U. after    9 cycles
 SCF Done:  E(RB3LYP) =  -1382.66619782     A.U. after   16 cycles
 SCF Done:  E(RB3LYP) =  -1382.65977288     A.U. after   16 cycles
 SCF Done:  E(RB3LYP) =  -1382.66799054     A.U. after   15 cycles
 SCF Done:  E(RB3LYP) =  -1382.66819039     A.U. after   14 cycles
 SCF Done:  E(RB3LYP) =  -1382.66820646     A.U. after   12 cycles
 SCF Done:  E(RB3LYP) =  -1382.66820833     A.U. after   11 cycles
 Optimization completed.
    -- Stationary point found.

                         Standard orientation:
 ---------------------------------------------------------------------
 Center     Atomic      Atomic             Coordinates (Angstroms)
 Number     Number       Type             X           Y           Z
 ---------------------------------------------------------------------
      1          6           0       -0.888309    0.539431    0.095004
      2          6           0       -1.794938   -0.512012   -0.101727
      3          6           0       -3.161747   -0.266261   -0.056971
      4          6           0       -3.666808    1.008441    0.176607
      5          6           0       -2.765907    2.053405    0.370455
      6          6           0       -1.393648    1.825918    0.331394
      7          6           0        0.574691    0.287883    0.054596
      8          6           0        1.128500   -0.856881    0.644746
      9          6           0        2.498781   -1.096480    0.612087
     10          6           0        3.333363   -0.180973   -0.020557
     11          6           0        2.815577    0.964210   -0.616795
     12          6           0        1.443357    1.190652   -0.574805
     13          1           0       -1.437871   -1.511715   -0.312929
     14          1           0       -4.735461    1.176384    0.206598
     15          1           0       -3.142210    3.051536    0.563299
     16          1           0       -0.708563    2.645834    0.511128
     17          1           0        0.485143   -1.561083    1.159464
     18          1           0        2.915576   -1.979051    1.080261
     19          1           0        3.475074    1.663449   -1.114789
     20          1           0        1.041570    2.071853   -1.061311
     21         17           0       -4.279389   -1.601250   -0.315664
     22         17           0        5.065817   -0.475291   -0.067626
 ---------------------------------------------------------------------

 The electronic state is 1-A.
 Alpha  occ. eigenvalues -- -101.56061-101.55993 -10.24968 -10.24937 -10.21017
 Alpha  occ. eigenvalues --  -10.20727 -10.19982 -10.19971 -10.19867 -10.19856
 Alpha  occ. eigenvalues --  -10.19851 -10.19823 -10.19764 -10.19391  -9.47518
 Alpha  occ. eigenvalues --   -9.47451  -7.23975  -7.23909  -7.23003  -7.22968
 Alpha  occ. eigenvalues --   -7.22936  -7.22902  -0.91010  -0.90241  -0.86444
 Alpha  occ. eigenvalues --   -0.84274  -0.79004  -0.77571  -0.75386  -0.73336
 Alpha  occ. eigenvalues --   -0.64657  -0.64200  -0.61699  -0.59681  -0.54855
 Alpha  occ. eigenvalues --   -0.51673  -0.50158  -0.48855  -0.47532  -0.46505
 Alpha  occ. eigenvalues --   -0.45065  -0.44642  -0.44341  -0.41465  -0.40611
 Alpha  occ. eigenvalues --   -0.40052  -0.38509  -0.37135  -0.36990  -0.35443
 Alpha  occ. eigenvalues --   -0.33912  -0.32383  -0.32342  -0.28907  -0.28073
 Alpha  occ. eigenvalues --   -0.26482  -0.24567
 Alpha virt. eigenvalues --   -0.05826  -0.03826  -0.03541  -0.00950  -0.00785
 Alpha virt. eigenvalues --    0.00247   0.01003   0.01169   0.01247   0.02826
 Alpha virt. eigenvalues --    0.02868   0.04082   0.04444   0.04686   0.05122

 Mulliken charges:
               1
     1  C    0.589806
     2  C   -1.085037
     3  C    0.797880
     4  C   -0.644861
     5  C   -0.365205
     6  C   -0.457599
     7  C    1.379660
     8  C   -0.740520
     9  C   -0.782817
    10  C    0.850679
    11  C   -0.765474
    12  C   -0.655474
    13  H    0.146703
    14  H    0.149325
    15  H    0.134888
    16  H    0.128051
    17  H    0.135814
    18  H    0.150243
    19  H    0.149942
    20  H    0.133091
    21  Cl   0.376439
    22  Cl   0.374465
 Sum of Mulliken charges =  -0.00000

 Dipole moment (field-independent basis, Debye):
    X=             -0.5177    Y=              1.6512    Z=              0.3131  Tot=              1.7586
 Quadrupole moment (field-independent basis, Debye-Ang):
   XX=           -105.0450   YY=            -87.9685   ZZ=            -98.2981
   XY=             -4.5339   XZ=             -1.6357   YZ=             -2.5639

 1\1\GINC-DAMODAR\FOpt\RB3LYP\6-311+G(d,p)\C12H8Cl2\PKC\14-Mar-2022\0\\
 # opt b3lyp/6-311+g(d,p) scf=xqc\\Title Card Required\\0,1\C,-1.703029
 6846,-2.1603051304,0.0792563833\C,-0.3013636497,-2.1525526283,0.040755
 4399\C,0.3848398941,-0.9445548425,0.020044503\C,-0.2836546993,0.274962
 3095,0.0401360078\C,-1.6763126675,0.2671728764,0.0800327057\C,-2.38063
 45519,-0.9328035359,0.0989801335\C,-2.4473860062,-3.4451856822,0.09641
 67971\C,-2.0456836639,-4.5247129845,-0.7027842013\C,-2.7407491264,-5.7
 300861796,-0.6926000864\C,-3.8552297616,-5.8644144812,0.1288668642\C,-

 Normal termination of Gaussian 16 at Mon Mar 14 19:34:58 2022.
