 Gaussian 16, Revision B.01,
 Gaussian 16:  EM64L-G16RevB.01 20-Dec-2017

 --------------------------------
 # opt b3lyp/6-311+g(d,p) scf=xqc
 --------------------------------

 -------------------
 Title Card Required
 -------------------
 Symbolic Z-matrix:
 Charge =  0 Multiplicity = 1

 SCF Done:  E(RB3LYP) =  -923.038065719     A.U. after   15 cycles
 SCF Done:  E(RB3LYP) =  -923.041973206     A.U. after   14 cycles
 SCF Done:  E(RB3LYP) =  -923.042248594     A.U. after   12 cycles
 SCF Done:  E(RB3LYP) =  -923.042262722     A.U. after   11 cycles
 SCF Done:  E(RB3LYP) =  -923.042265241     A.U. after    9 cycles
 SCF Done:  E(RB3LYP) =  -923.042265602     A.U. after    9 cycles
 SCF Done:  E(RB3LYP) =  -923.042265745     A.U. after    9 cycles
 SCF Done:  E(RB3LYP) =  -923.043585753     A.U. after   15 cycles
 SCF Done:  E(RB3LYP) =  -923.045038350     A.U. after   16 cycles
 SCF Done:  E(RB3LYP) =  -923.045251223     A.U. after   12 cycles
 SCF Done:  E(RB3LYP) =  -923.045557718     A.U. after   15 cycles
 SCF Done:  E(RB3LYP) =  -923.045620119     A.U. after   12 cycles
 SCF Done:  E(RB3LYP) =  -923.045621221     A.U. after   11 cycles
 SCF Done:  E(RB3LYP) =  -923.045621363     A.U. after    9 cycles
 Optimization completed.
    -- Stationary point found.

                         Standard orientation:
 ---------------------------------------------------------------------
 Center     Atomic      Atomic             Coordinates (Angstroms)
 Number     Number       Type             X           Y           Z
 ---------------------------------------------------------------------
      1          6           0        0.016120    0.463877   -0.088309
      2          6           0        1.006726   -0.509182    0.107913
      3          6           0        2.348727   -0.154538    0.048016
      4          6           0        2.748339    1.154090   -0.200931
      5          6           0        1.764213    2.121340   -0.394274
      6          6           0        0.415081    1.784489   -0.339602
      7          6           0       -1.421950    0.095041   -0.031172
      8          6           0       -1.884009   -1.094461   -0.613100
      9          6           0       -3.232236   -1.438205   -0.560771
     10          6           0       -4.146312   -0.600166    0.075688
     11          6           0       -3.700686    0.584976    0.658644
     12          6           0       -2.352613    0.929214    0.605347
     13          1           0        0.732569   -1.532506    0.329489
     14          1           0        3.799784    1.406867   -0.242786
     15          1           0        2.057181    3.144863   -0.598858
     16          1           0       -0.335663    2.545114   -0.517644
     17          1           0       -1.186270   -1.742367   -1.131602
     18          1           0       -3.570043   -2.357990   -1.025099
     19          1           0       -5.195900   -0.868124    0.117037
     20          1           0       -4.402264    1.239275    1.164069
     21          1           0       -2.013565    1.841455    1.083044
     22         17           0        3.573281   -1.393849    0.306921
 ---------------------------------------------------------------------

 The electronic state is 1-A.
 Alpha  occ. eigenvalues -- -101.55583 -10.24485 -10.20391 -10.19782 -10.19340
 Alpha  occ. eigenvalues --  -10.19303 -10.19283 -10.18841 -10.18570 -10.18557
 Alpha  occ. eigenvalues --  -10.18517 -10.18500 -10.18424  -9.47041  -7.23496
 Alpha  occ. eigenvalues --   -7.22526  -7.22493  -0.90196  -0.87370  -0.84462
 Alpha  occ. eigenvalues --   -0.79140  -0.76059  -0.74986  -0.73474  -0.64421
 Alpha  occ. eigenvalues --   -0.62957  -0.60665  -0.58912  -0.54303  -0.51521
 Alpha  occ. eigenvalues --   -0.48924  -0.48257  -0.45824  -0.45586  -0.44163
 Alpha  occ. eigenvalues --   -0.43775  -0.43273  -0.40569  -0.38764  -0.38202
 Alpha  occ. eigenvalues --   -0.37357  -0.35707  -0.35422  -0.34071  -0.31939
 Alpha  occ. eigenvalues --   -0.29033  -0.26721  -0.26074  -0.24381
 Alpha virt. eigenvalues --   -0.05065  -0.03076  -0.02495  -0.00352  -0.00091
 Alpha virt. eigenvalues --    0.00560   0.01381   0.01639   0.02756   0.03050
 Alpha virt. eigenvalues --    0.04145   0.04547   0.04987   0.05171   0.05604

 Mulliken charges:
               1
     1  C    0.761427
     2  C   -0.952701
     3  C    0.725116
     4  C   -0.642775
     5  C   -0.380274
     6  C   -0.523795
     7  C    1.369730
     8  C   -0.633791
     9  C   -0.289418
    10  C   -0.193778
    11  C   -0.267371
    12  C   -0.544161
    13  H    0.147344
    14  H    0.147854
    15  H    0.133262
    16  H    0.128346
    17  H    0.128729
    18  H    0.127966
    19  H    0.127910
    20  H    0.127553
    21  H    0.125849
    22  Cl   0.376979
 Sum of Mulliken charges =  -0.00000

 Dipole moment (field-independent basis, Debye):
    X=             -1.5730    Y=              1.2184    Z=             -0.2615  Tot=              2.0068
 Quadrupole moment (field-independent basis, Debye-Ang):
   XX=            -79.8360   YY=            -76.5692   ZZ=            -87.0168
   XY=              4.9149   XZ=             -1.8812   YZ=              1.9579

 1\1\GINC-DAMODAR\FOpt\RB3LYP\6-311+G(d,p)\C12H9Cl1\PKC\14-Mar-2022\0\\
 # opt b3lyp/6-311+g(d,p) scf=xqc\\Title Card Required\\0,1\C,-0.344715
 8755,-1.5925531769,-0.012614321\C,1.057243923,-1.5868484328,-0.0461514
 496\C,1.7456741364,-0.3801362369,-0.061545307\C,1.0804219769,0.8410148
 358,-0.0414683209\C,-0.3124897956,0.8355229579,-0.0064746638\C,-1.0191
 015647,-0.3632743081,0.007681003\C,-1.0913297164,-2.8769888543,-0.0006
 765399\C,-0.6885779363,-3.9516080457,-0.8069261356\C,-1.3901678165,-5.
 1542206742,-0.796517991\C,-2.5084314153,-5.3076714559,0.0213232379\C,-

 Normal termination of Gaussian 16 at Mon Mar 14 19:17:24 2022.
