 Gaussian 16, Revision B.01,
 Gaussian 16:  EM64L-G16RevB.01 20-Dec-2017

 --------------------------------
 # opt b3lyp/6-311+g(d,p) scf=xqc
 --------------------------------

 -------------------
 Title Card Required
 -------------------
 Symbolic Z-matrix:
 Charge =  0 Multiplicity = 1

 SCF Done:  E(RB3LYP) =  -1382.66031555     A.U. after   14 cycles
 SCF Done:  E(RB3LYP) =  -1382.66473481     A.U. after   13 cycles
 SCF Done:  E(RB3LYP) =  -1382.66502654     A.U. after   11 cycles
 SCF Done:  E(RB3LYP) =  -1382.66504117     A.U. after   10 cycles
 SCF Done:  E(RB3LYP) =  -1382.66504218     A.U. after    9 cycles
 SCF Done:  E(RB3LYP) =  -1382.66504223     A.U. after    8 cycles
 SCF Done:  E(RB3LYP) =  -1382.66504660     A.U. after   10 cycles
 SCF Done:  E(RB3LYP) =  -1382.63308940     A.U. after   13 cycles
 SCF Done:  E(RB3LYP) =  -1382.64194933     A.U. after   14 cycles
 SCF Done:  E(RB3LYP) =  -1382.66504778     A.U. after    8 cycles
 SCF Done:  E(RB3LYP) =  -1382.66726952     A.U. after   15 cycles
 SCF Done:  E(RB3LYP) =  -1382.62460684     A.U. after   14 cycles
 SCF Done:  E(RB3LYP) =  -1382.66464347     A.U. after   14 cycles
 SCF Done:  E(RB3LYP) =  -1382.66796346     A.U. after   12 cycles
 SCF Done:  E(RB3LYP) =  -1382.66716134     A.U. after   14 cycles
 SCF Done:  E(RB3LYP) =  -1382.66813049     A.U. after   11 cycles
 SCF Done:  E(RB3LYP) =  -1382.66820937     A.U. after   11 cycles
 SCF Done:  E(RB3LYP) =  -1382.66821303     A.U. after   11 cycles
 SCF Done:  E(RB3LYP) =  -1382.66821322     A.U. after   10 cycles
 Optimization completed.
    -- Stationary point found.

                         Standard orientation:
 ---------------------------------------------------------------------
 Center     Atomic      Atomic             Coordinates (Angstroms)
 Number     Number       Type             X           Y           Z
 ---------------------------------------------------------------------
      1          6           0       -0.000000   -0.742102    0.000000
      2          6           0        1.127205   -1.464883   -0.416244
      3          6           0        1.134962   -2.856365   -0.419060
      4          6           0       -0.000000   -3.542696    0.000000
      5          6           0       -1.134962   -2.856365    0.419060
      6          6           0       -1.127205   -1.464883    0.416244
      7          6           0        0.000000    0.742102    0.000000
      8          6           0        1.127205    1.464883    0.416244
      9          6           0        1.134962    2.856365    0.419060
     10          6           0        0.000000    3.542696    0.000000
     11          6           0       -1.134962    2.856365   -0.419060
     12          6           0       -1.127205    1.464883   -0.416244
     13          1           0        2.005136   -0.935280   -0.767742
     14          1           0        2.008236   -3.402415   -0.752443
     15          1           0       -2.008236   -3.402415    0.752443
     16          1           0       -2.005136   -0.935280    0.767742
     17          1           0        2.005136    0.935280    0.767742
     18          1           0        2.008236    3.402415    0.752443
     19          1           0       -2.008236    3.402415   -0.752443
     20          1           0       -2.005136    0.935280   -0.767742
     21         17           0       -0.000000   -5.300918   -0.000000
     22         17           0        0.000000    5.300918   -0.000000
 ---------------------------------------------------------------------

 The electronic state is 1-A.
 Alpha  occ. eigenvalues -- -101.56041-101.56041 -10.24889 -10.24889 -10.20691
 Alpha  occ. eigenvalues --  -10.20662 -10.19951 -10.19951 -10.19950 -10.19949
 Alpha  occ. eigenvalues --  -10.19816 -10.19816 -10.19815 -10.19815  -9.47497
 Alpha  occ. eigenvalues --   -9.47497  -7.23954  -7.23954  -7.22982  -7.22982
 Alpha  occ. eigenvalues --   -7.22948  -7.22948  -0.90948  -0.90261  -0.86597
 Alpha  occ. eigenvalues --   -0.84175  -0.77871  -0.77807  -0.77162  -0.72389
 Alpha  occ. eigenvalues --   -0.64920  -0.63331  -0.62478  -0.59844  -0.55228
 Alpha  occ. eigenvalues --   -0.50689  -0.50194  -0.48938  -0.47521  -0.46784
 Alpha  occ. eigenvalues --   -0.45165  -0.44547  -0.44480  -0.41437  -0.40642
 Alpha  occ. eigenvalues --   -0.40244  -0.38526  -0.37067  -0.37020  -0.35566
 Alpha  occ. eigenvalues --   -0.33718  -0.32401  -0.32320  -0.28049  -0.28041
 Alpha  occ. eigenvalues --   -0.27909  -0.24110
 Alpha virt. eigenvalues --   -0.05713  -0.03891  -0.03647  -0.00954  -0.00917
 Alpha virt. eigenvalues --    0.00528   0.01003   0.01026   0.01150   0.02630
 Alpha virt. eigenvalues --    0.03147   0.04140   0.04201   0.04545   0.05163

 Mulliken charges:
               1
     1  C    1.091529
     2  C   -0.649847
     3  C   -0.816796
     4  C    0.919150
     5  C   -0.816796
     6  C   -0.649846
     7  C    1.091529
     8  C   -0.649846
     9  C   -0.816796
    10  C    0.919150
    11  C   -0.816796
    12  C   -0.649847
    13  H    0.131324
    14  H    0.150669
    15  H    0.150669
    16  H    0.131324
    17  H    0.131324
    18  H    0.150669
    19  H    0.150669
    20  H    0.131324
    21  Cl   0.358622
    22  Cl   0.358622
 Sum of Mulliken charges =  -0.00000

 Dipole moment (field-independent basis, Debye):
    X=             -0.0000    Y=             -0.0000    Z=             -0.0000  Tot=              0.0000
 Quadrupole moment (field-independent basis, Debye-Ang):
   XX=            -85.6092   YY=           -112.6854   ZZ=            -98.6736
   XY=              0.0000   XZ=              0.0000   YZ=              0.0000

 1\1\GINC-DAMODAR\FOpt\RB3LYP\6-311+G(d,p)\C12H8Cl2\PKC\14-Mar-2022\0\\
 # opt b3lyp/6-311+g(d,p) scf=xqc\\Title Card Required\\0,1\C,-4.213602
 4659,-1.9889418573,-0.0649440763\C,-2.8115346873,-1.9721489335,-0.0785
 405745\C,-2.1015314997,-0.7754242603,-0.0846879292\C,-2.7989333309,0.4
 280588939,-0.0770805098\C,-4.1897102787,0.4468918106,-0.0635245366\C,-
 4.8854712953,-0.7581699436,-0.0576118511\C,-4.9633208951,-3.2698562842
 ,-0.0585122277\C,-4.5478988783,-4.3544385846,-0.8442391335\C,-5.245394
 7798,-5.5585113534,-0.8435923555\C,-6.3779899931,-5.6868570565,-0.0463

 Normal termination of Gaussian 16 at Mon Mar 14 19:29:52 2022.
