 Gaussian 16, Revision B.01,
 Gaussian 16:  EM64L-G16RevB.01 20-Dec-2017

 --------------------------------
 # opt b3lyp/6-311+g(d,p) scf=xqc
 --------------------------------

 -------------------
 Title Card Required
 -------------------
 Symbolic Z-matrix:
 Charge =  0 Multiplicity = 1

 SCF Done:  E(RB3LYP) =  -923.037900277     A.U. after   14 cycles
 SCF Done:  E(RB3LYP) =  -923.042020368     A.U. after   13 cycles
 SCF Done:  E(RB3LYP) =  -923.042301518     A.U. after   11 cycles
 SCF Done:  E(RB3LYP) =  -923.042316604     A.U. after   10 cycles
 SCF Done:  E(RB3LYP) =  -923.042317582     A.U. after    9 cycles
 Optimization completed.
    -- Stationary point found.

                         Standard orientation:
 ---------------------------------------------------------------------
 Center     Atomic      Atomic             Coordinates (Angstroms)
 Number     Number       Type             X           Y           Z
 ---------------------------------------------------------------------
      1          6           0       -0.129756    0.000000    0.000000
      2          6           0        0.608818    1.195475   -0.000065
      3          6           0        0.608818   -1.195475    0.000065
      4          6           0        1.999437    1.205615   -0.000065
      5          1           0        0.104872    2.152396   -0.000119
      6          6           0       -1.622596    0.000000    0.000000
      7          6           0        1.999437   -1.205615    0.000065
      8          1           0        0.104872   -2.152396    0.000119
      9          6           0        2.690661    0.000000    0.000000
     10          1           0        2.540343    2.143391   -0.000117
     11          6           0       -2.358269    1.197757    0.000065
     12          6           0       -2.358269   -1.197757   -0.000065
     13          1           0        2.540343   -2.143391    0.000117
     14         17           0        4.448535    0.000000   -0.000000
     15          6           0       -3.749707    1.199511    0.000065
     16          1           0       -1.850491    2.153016    0.000119
     17          6           0       -3.749707   -1.199511   -0.000065
     18          1           0       -1.850491   -2.153016   -0.000119
     19          6           0       -4.457447    0.000000    0.000000
     20          1           0       -4.280863    2.144836    0.000117
     21          1           0       -4.280863   -2.144836   -0.000117
     22          1           0       -5.541326    0.000000    0.000000
 ---------------------------------------------------------------------

 The electronic state is 1-A.
 Alpha  occ. eigenvalues -- -101.55719 -10.24388 -10.20402 -10.20094 -10.19465
 Alpha  occ. eigenvalues --  -10.19463 -10.19292 -10.19291 -10.18558 -10.18558
 Alpha  occ. eigenvalues --  -10.18501 -10.18490 -10.18384  -9.47175  -7.23630
 Alpha  occ. eigenvalues --   -7.22661  -7.22627  -0.90213  -0.87457  -0.84571
 Alpha  occ. eigenvalues --   -0.78234  -0.77194  -0.75793  -0.72666  -0.64237
 Alpha  occ. eigenvalues --   -0.63461  -0.60554  -0.59393  -0.54915  -0.50572
 Alpha  occ. eigenvalues --   -0.49141  -0.48888  -0.45517  -0.45117  -0.44714
 Alpha  occ. eigenvalues --   -0.44004  -0.42744  -0.41149  -0.38694  -0.38505
 Alpha  occ. eigenvalues --   -0.37908  -0.36002  -0.34745  -0.34425  -0.31993
 Alpha  occ. eigenvalues --   -0.28857  -0.27655  -0.26624  -0.23317
 Alpha virt. eigenvalues --   -0.05879  -0.03902  -0.01425  -0.00557   0.00819
 Alpha virt. eigenvalues --    0.00875   0.01094   0.01310   0.02920   0.03019
 Alpha virt. eigenvalues --    0.04446   0.04901   0.05164   0.05396   0.06523

 Mulliken charges:
               1
     1  C    0.790984
     2  C   -0.599966
     3  C   -0.599966
     4  C   -0.607697
     5  H    0.125119
     6  C    0.923826
     7  C   -0.607697
     8  H    0.125119
     9  C    0.764179
    10  H    0.143913
    11  C   -0.356557
    12  C   -0.356557
    13  H    0.143913
    14  Cl   0.400851
    15  C   -0.354310
    16  H    0.117821
    17  C   -0.354310
    18  H    0.117821
    19  C   -0.193029
    20  H    0.125012
    21  H    0.125012
    22  H    0.126518
 Sum of Mulliken charges =  -0.00000

 Dipole moment (field-independent basis, Debye):
    X=             -2.0287    Y=             -0.0000    Z=             -0.0000  Tot=              2.0287
 Quadrupole moment (field-independent basis, Debye-Ang):
   XX=            -84.1396   YY=            -72.8647   ZZ=            -89.5119
   XY=             -0.0000   XZ=              0.0000   YZ=             -0.0000

 1\1\GINC-DAMODAR\FOpt\RB3LYP\6-311+G(d,p)\C12H9Cl1\PKC\14-Mar-2022\0\\
 # opt b3lyp/6-311+g(d,p) scf=xqc\\Title Card Required\\0,1\C,-1.584491
 293,-1.0757867652,0.0008766685\C,-0.9942728619,-2.2796023331,-0.419981
 6067\C,-2.9231625003,-1.1454643378,0.4224876727\C,-1.6907015547,-3.483
 3062349,-0.4228462631\H,0.0330623679,-2.2990470773,-0.7574197858\C,-0.
 8280877752,0.2112345806,0.0001159279\C,-3.6359528384,-2.3395480084,0.4
 26769595\H,-3.4398111464,-0.2570858709,0.7594122533\C,-3.0135618893,-3
 .5073517935,0.0023138957\H,-1.208225609,-4.3944678206,-0.753003987\C,0

 Normal termination of Gaussian 16 at Mon Mar 14 18:09:28 2022.
